 Entering Gaussian System, Link 0=g09
 Initial command:
 /home/yuheng/proj/yuheng/g09/l1.exe /home/yuheng/proj/yuheng/g09_scratch/Gau-78600.inp -scrdir=/home/yuheng/proj/yuheng/g09_scratch/
 Entering Link 1 = /home/yuheng/proj/yuheng/g09/l1.exe PID=     78601.
  
 Copyright (c) 1988,1990,1992,1993,1995,1998,2003,2009,2010,
            Gaussian, Inc.  All Rights Reserved.
  
 This is part of the Gaussian(R) 09 program.  It is based on
 the Gaussian(R) 03 system (copyright 2003, Gaussian, Inc.),
 the Gaussian(R) 98 system (copyright 1998, Gaussian, Inc.),
 the Gaussian(R) 94 system (copyright 1995, Gaussian, Inc.),
 the Gaussian 92(TM) system (copyright 1992, Gaussian, Inc.),
 the Gaussian 90(TM) system (copyright 1990, Gaussian, Inc.),
 the Gaussian 88(TM) system (copyright 1988, Gaussian, Inc.),
 the Gaussian 86(TM) system (copyright 1986, Carnegie Mellon
 University), and the Gaussian 82(TM) system (copyright 1983,
 Carnegie Mellon University). Gaussian is a federally registered
 trademark of Gaussian, Inc.
  
 This software contains proprietary and confidential information,
 including trade secrets, belonging to Gaussian, Inc.
  
 This software is provided under written license and may be
 used, copied, transmitted, or stored only in accord with that
 written license.
  
 The following legend is applicable only to US Government
 contracts under FAR:
  
                    RESTRICTED RIGHTS LEGEND
  
 Use, reproduction and disclosure by the US Government is
 subject to restrictions as set forth in subparagraphs (a)
 and (c) of the Commercial Computer Software - Restricted
 Rights clause in FAR 52.227-19.
  
 Gaussian, Inc.
 340 Quinnipiac St., Bldg. 40, Wallingford CT 06492
  
  
 ---------------------------------------------------------------
 Warning -- This program may not be used in any manner that
 competes with the business of Gaussian, Inc. or will provide
 assistance to any competitor of Gaussian, Inc.  The licensee
 of this program is prohibited from giving any competitor of
 Gaussian, Inc. access to this program.  By using this program,
 the user acknowledges that Gaussian, Inc. is engaged in the
 business of creating and licensing software in the field of
 computational chemistry and represents and warrants to the
 licensee that it is not a competitor of Gaussian, Inc. and that
 it will not use this program in any manner prohibited above.
 ---------------------------------------------------------------
  

 Cite this work as:
 Gaussian 09, Revision B.01,
 M. J. Frisch, G. W. Trucks, H. B. Schlegel, G. E. Scuseria, 
 M. A. Robb, J. R. Cheeseman, G. Scalmani, V. Barone, B. Mennucci, 
 G. A. Petersson, H. Nakatsuji, M. Caricato, X. Li, H. P. Hratchian, 
 A. F. Izmaylov, J. Bloino, G. Zheng, J. L. Sonnenberg, M. Hada, 
 M. Ehara, K. Toyota, R. Fukuda, J. Hasegawa, M. Ishida, T. Nakajima, 
 Y. Honda, O. Kitao, H. Nakai, T. Vreven, J. A. Montgomery, Jr., 
 J. E. Peralta, F. Ogliaro, M. Bearpark, J. J. Heyd, E. Brothers, 
 K. N. Kudin, V. N. Staroverov, T. Keith, R. Kobayashi, J. Normand, 
 K. Raghavachari, A. Rendell, J. C. Burant, S. S. Iyengar, J. Tomasi, 
 M. Cossi, N. Rega, J. M. Millam, M. Klene, J. E. Knox, J. B. Cross, 
 V. Bakken, C. Adamo, J. Jaramillo, R. Gomperts, R. E. Stratmann, 
 O. Yazyev, A. J. Austin, R. Cammi, C. Pomelli, J. W. Ochterski, 
 R. L. Martin, K. Morokuma, V. G. Zakrzewski, G. A. Voth, 
 P. Salvador, J. J. Dannenberg, S. Dapprich, A. D. Daniels, 
 O. Farkas, J. B. Foresman, J. V. Ortiz, J. Cioslowski, 
 and D. J. Fox, Gaussian, Inc., Wallingford CT, 2010.
 
 ******************************************
 Gaussian 09:  EM64L-G09RevB.01 12-Aug-2010
                26-Mar-2019 
 ******************************************
 %mem=16gb
 %nprocshared=20
 Will use up to   20 processors via shared memory.
 %chk=1b-conf-9.chk
 ----------------------------------------------------------------------
 # b3lyp/6-311+G(2d,p) nmr guess=read geom=check integral(ultrafinegrid
 ) scrf=(iefpcm,read,solvent=methanol)
 ----------------------------------------------------------------------
 1/29=2,38=1,40=2/1;
 2/12=2,40=1/2;
 3/5=4,6=6,7=112,11=2,14=-4,16=1,25=1,30=1,70=2203,72=3,74=-5,75=-5,116=-2/1,2,8,3;
 4/5=1/1;
 5/5=2,38=6,53=3/2;
 8/6=1,10=90,11=11/1;
 10/13=100,45=16/2;
 6/7=2,8=2,9=2,10=2,28=1/1;
 99/9=1/99;
 ----------------------------------------------------------------------
 Candidate Structure: 1b, Conformer: 9, NMR calculation with methanol s
 olvation
 ----------------------------------------------------------------------
 Redundant internal coordinates taken from checkpoint file:
 1b-conf-9.chk
 Charge =  0 Multiplicity = 1
 O,0,0.359455322,-2.2605190863,-0.7781664333
 C,0,1.4149408328,-1.4829368556,-0.5086069491
 C,0,1.3296136251,-0.084741816,-0.3790775498
 C,0,0.0431848459,0.5839231498,-0.5307255068
 N,0,-1.0684703984,0.0004779632,-0.8039697228
 C,0,-2.0763507945,1.0611028273,-0.9302724734
 C,0,-3.4596143819,0.6640488004,-0.3848054667
 O,0,-4.174963403,-0.0920860871,-1.3481099134
 C,0,-3.4605488091,-0.0409684205,0.9824591719
 C,0,-2.6715331279,-1.3238790094,1.0077448012
 O,0,-1.7833335717,-1.3731877641,1.998795222
 O,0,-2.8738081856,-2.2683479511,0.2740014031
 C,0,-1.3629086876,2.3065256542,-0.3337186851
 C,0,-1.6748912125,2.7010399917,1.0961026804
 O,0,0.043176274,1.9211592055,-0.3841444704
 C,0,2.4750589996,0.6658262014,-0.0987300826
 C,0,3.6867905421,0.0253437766,0.0536479997
 Cl,0,5.1218924048,0.9639696546,0.4039193889
 C,0,3.7860718896,-1.3602698161,-0.0668823176
 C,0,2.6553183447,-2.1052582781,-0.3472447166
 H,0,-0.4320126499,-1.6799264744,-0.9118669383
 H,0,-2.2446948288,1.2328918876,-2.0016784027
 H,0,-4.0394141238,1.5874592457,-0.2654132788
 H,0,-3.7623008522,-0.9696720289,-1.4429692554
 H,0,-4.5001189677,-0.3075427996,1.2028017598
 H,0,-3.105738537,0.6167836961,1.7754265041
 H,0,-1.3325005126,-2.2481144657,1.9789965707
 H,0,-1.4735066432,3.1633435978,-1.0015193746
 H,0,-1.3908681961,1.9061327256,1.7907157796
 H,0,-1.1021094922,3.5956178314,1.3522212766
 H,0,-2.7396670154,2.92727102,1.2160322273
 H,0,2.3971357072,1.7453912688,0.0000458239
 H,0,4.7484380261,-1.8496406017,0.0575210665
 H,0,2.7094761093,-3.1855085429,-0.4475072072
 Recover connectivity data from disk.
                          Input orientation:                          
 ---------------------------------------------------------------------
 Center     Atomic      Atomic             Coordinates (Angstroms)
 Number     Number       Type             X           Y           Z
 ---------------------------------------------------------------------
      1          8           0        0.359455   -2.260519   -0.778166
      2          6           0        1.414941   -1.482937   -0.508607
      3          6           0        1.329614   -0.084742   -0.379078
      4          6           0        0.043185    0.583923   -0.530726
      5          7           0       -1.068470    0.000478   -0.803970
      6          6           0       -2.076351    1.061103   -0.930272
      7          6           0       -3.459614    0.664049   -0.384805
      8          8           0       -4.174963   -0.092086   -1.348110
      9          6           0       -3.460549   -0.040968    0.982459
     10          6           0       -2.671533   -1.323879    1.007745
     11          8           0       -1.783334   -1.373188    1.998795
     12          8           0       -2.873808   -2.268348    0.274001
     13          6           0       -1.362909    2.306526   -0.333719
     14          6           0       -1.674891    2.701040    1.096103
     15          8           0        0.043176    1.921159   -0.384144
     16          6           0        2.475059    0.665826   -0.098730
     17          6           0        3.686791    0.025344    0.053648
     18         17           0        5.121892    0.963970    0.403919
     19          6           0        3.786072   -1.360270   -0.066882
     20          6           0        2.655318   -2.105258   -0.347245
     21          1           0       -0.432013   -1.679926   -0.911867
     22          1           0       -2.244695    1.232892   -2.001678
     23          1           0       -4.039414    1.587459   -0.265413
     24          1           0       -3.762301   -0.969672   -1.442969
     25          1           0       -4.500119   -0.307543    1.202802
     26          1           0       -3.105739    0.616784    1.775427
     27          1           0       -1.332501   -2.248114    1.978997
     28          1           0       -1.473507    3.163344   -1.001519
     29          1           0       -1.390868    1.906133    1.790716
     30          1           0       -1.102109    3.595618    1.352221
     31          1           0       -2.739667    2.927271    1.216032
     32          1           0        2.397136    1.745391    0.000046
     33          1           0        4.748438   -1.849641    0.057521
     34          1           0        2.709476   -3.185509   -0.447507
 ---------------------------------------------------------------------
                    Distance matrix (angstroms):
                    1          2          3          4          5
     1  O    0.000000
     2  C    1.338412   0.000000
     3  C    2.415468   1.406772   0.000000
     4  C    2.872648   2.480749   1.457741   0.000000
     5  N    2.674275   2.907764   2.436925   1.284853   0.000000
     6  C    4.121827   4.340398   3.635570   2.209020   1.468571
     7  C    4.826295   5.327867   4.847414   3.506753   2.516663
     8  O    5.058447   5.821191   5.589226   4.349469   3.155147
     9  C    4.755906   5.298391   4.980096   3.867346   2.985814
    10  C    3.640558   4.361639   4.412246   3.657362   2.757905
    11  O    3.618068   4.065473   4.123689   3.683060   3.202105
    12  O    3.400163   4.429753   4.781569   4.158351   3.093354
    13  C    4.901221   4.701815   3.601374   2.232324   2.371853
    14  C    5.680539   5.443144   4.354743   3.174986   3.357239
    15  O    4.212092   3.672206   2.382978   1.345246   2.258546
    16  C    3.674358   2.430850   1.397853   2.471303   3.673779
    17  C    4.121680   2.784303   2.399094   3.732207   4.832042
    18  Cl   5.871581   4.534484   4.011765   5.177960   6.380275
    19  C    3.613596   2.415043   2.785431   4.243140   5.095244
    20  C    2.341108   1.397089   2.416815   3.753479   4.302247
    21  H    0.990649   1.900700   2.435530   2.344376   1.800133
    22  H    4.525760   4.795615   4.140613   2.796293   2.082511
    23  H    5.866848   6.263902   5.624556   4.212492   3.411020
    24  H    4.370026   5.285859   5.276605   4.210412   2.933638
    25  H    5.599448   6.268844   6.044648   4.943828   3.987257
    26  H    5.177574   5.482899   4.980600   3.903221   3.344186
    27  H    3.234937   3.784455   4.162637   4.026370   3.587587
    28  H    5.729566   5.493088   4.335317   3.029094   3.194808
    29  H    5.198440   4.964397   4.009065   3.032134   3.235406
    30  H    6.400708   5.965731   4.738747   3.731956   4.192293
    31  H    6.363533   6.299610   5.308073   4.035679   3.929303
    32  H    4.561258   3.412556   2.152377   2.678024   3.962523
    33  H    4.486687   3.401055   3.872189   5.329885   6.164538
    34  H    2.547065   2.139697   3.394622   4.617862   4.954842
                    6          7          8          9         10
     6  C    0.000000
     7  C    1.539027   0.000000
     8  O    2.430763   1.418245   0.000000
     9  C    2.605592   1.538331   2.438146   0.000000
    10  C    3.130222   2.551887   3.054123   1.506335   0.000000
    11  O    3.819826   3.555531   4.308467   2.370822   1.331732
    12  O    3.629250   3.062049   3.010044   2.409854   1.212978
    13  C    1.554334   2.663928   3.832751   3.412206   4.085567
    14  C    2.637567   3.086691   4.475052   3.274156   4.147418
    15  O    2.351669   3.721541   4.772325   4.241891   4.453906
    16  C    4.643602   5.941565   6.808684   6.074534   5.627666
    17  C    5.937566   7.188274   7.986607   7.207742   6.569550
    18  Cl   7.321489   8.622894   9.519264   8.660422   8.144712
    19  C    6.401288   7.529868   8.162593   7.440107   6.546511
    20  C    5.723151   6.712889   7.190782   6.590390   5.551747
    21  H    3.196471   3.865021   4.089159   3.930227   2.971049
    22  H    1.098072   2.100926   2.430773   3.464982   3.971888
    23  H    2.138389   1.096863   2.002867   2.131677   3.459468
    24  H    2.688742   1.969866   0.974395   2.614622   2.705778
    25  H    3.506829   2.132402   2.580562   1.095591   2.101122
    26  H    2.928799   2.189535   3.376717   1.089645   2.131676
    27  H    4.468566   4.311945   4.878288   3.223844   1.894875
    28  H    2.188130   3.251374   4.244504   4.260531   5.060393
    29  H    2.930484   3.248904   4.647181   2.954329   3.561758
    30  H    3.547209   4.143572   5.507575   4.350140   5.175249
    31  H    2.920479   2.864119   4.213243   3.063441   4.256795
    32  H    4.620154   5.968160   6.956029   6.202313   6.010597
    33  H    7.485045   8.595721   9.202820   8.456611   7.499021
    34  H    6.416456   7.271912   7.601043   7.071219   5.876962
                   11         12         13         14         15
    11  O    0.000000
    12  O    2.228309   0.000000
    13  C    4.376947   4.856090   0.000000
    14  C    4.174440   5.177651   1.515706   0.000000
    15  O    4.457271   5.147225   1.458809   2.398145   0.000000
    16  C    5.166343   6.112175   4.180563   4.774077   2.751613
    17  C    5.971746   6.953491   5.554575   6.082244   4.130581
    18  Cl   7.462445   8.625311   6.663273   7.049312   5.227869
    19  C    5.940157   6.730142   6.326815   6.904266   4.987755
    20  C    5.073604   5.566308   5.967426   6.628308   4.799655
    21  H    3.223680   2.777569   4.134323   4.976902   3.670438
    22  H    4.796696   4.222935   2.170789   3.475109   2.885218
    23  H    4.356830   4.064093   2.772256   2.946991   4.097926
    24  H    3.990599   2.328941   4.209631   4.927301   4.894862
    25  H    3.024918   2.711515   4.363065   4.128543   5.303493
    26  H    2.399716   3.260683   3.215770   2.617810   4.034948
    27  H    0.984449   2.298488   5.108260   5.038935   4.985957
    28  H    5.447752   5.752484   1.091937   2.157382   2.055359
    29  H    3.309270   4.682502   2.162017   1.093176   2.605135
    30  H    5.056793   6.219933   2.138263   1.092678   2.670292
    31  H    4.474510   5.282033   2.163912   1.095131   3.364081
    32  H    5.585415   6.630837   3.816308   4.323888   2.391573
    33  H    6.830783   7.636807   7.401037   7.940183   6.045948
    34  H    5.427176   5.703930   6.838107   7.500457   5.761183
                   16         17         18         19         20
    16  C    0.000000
    17  C    1.379032   0.000000
    18  Cl   2.710585   1.750207   0.000000
    19  C    2.413469   1.394385   2.721793   0.000000
    20  C    2.788039   2.400857   4.008540   1.382828   0.000000
    21  H    3.822932   4.561218   6.290258   4.313747   3.167226
    22  H    5.120435   6.392578   7.754085   6.843835   6.155528
    23  H    6.581455   7.888995   9.206861   8.364613   7.646064
    24  H    6.586842   7.662825   9.277869   7.682715   6.608782
    25  H    7.162021   8.273866   9.738483   8.448745   7.538880
    26  H    5.887289   7.032267   8.348382   7.402695   6.716027
    27  H    5.225467   5.836854   7.379535   5.583339   4.618929
    28  H    4.758549   6.130994   7.093081   6.999985   6.725581
    29  H    4.478142   5.686597   6.725097   6.396934   6.085537
    30  H    4.846140   6.112832   6.823712   7.104153   7.036081
    31  H    5.834047   7.146445   8.143598   7.912910   7.541621
    32  H    1.086871   2.150499   2.863221   3.402757   3.874890
    33  H    3.394148   2.154687   2.859347   1.086788   2.147167
    34  H    3.874194   3.393504   4.874715   2.153005   1.086244
                   21         22         23         24         25
    21  H    0.000000
    22  H    3.599725   0.000000
    23  H    4.909894   2.522172   0.000000
    24  H    3.446353   2.732503   2.828843   0.000000
    25  H    4.785891   4.210531   2.441093   2.825402   0.000000
    26  H    4.432294   3.922691   2.445197   3.647737   1.768212
    27  H    3.080715   5.366123   5.203497   4.387276   3.795010
    28  H    4.954797   2.306880   3.099862   4.745026   5.105533
    29  H    4.591642   3.945190   3.368088   4.934639   3.861793
    30  H    5.779835   4.258711   3.908606   5.977590   5.177206
    31  H    5.574898   3.670093   2.383090   4.827239   3.682850
    32  H    4.535247   5.080959   6.443957   6.884223   7.296114
    33  H    5.273100   7.914936   9.441625   8.686685   9.445927
    34  H    3.514450   6.817736   8.268125   6.912653   7.936275
                   26         27         28         29         30
    26  H    0.000000
    27  H    3.375419   0.000000
    28  H    4.106163   6.179582   0.000000
    29  H    2.145562   4.158921   3.063329   0.000000
    30  H    3.614842   5.881763   2.421754   1.769186   0.000000
    31  H    2.405261   5.417273   2.564455   1.786685   1.773931
    32  H    5.891295   5.811585   4.242121   4.193007   4.182874
    33  H    8.409669   6.389731   8.060036   7.402762   8.096666
    34  H    7.294901   4.806683   7.623136   6.909940   7.984415
                   31         32         33         34
    31  H    0.000000
    32  H    5.409455   0.000000
    33  H    8.957274   4.296066   0.000000
    34  H    8.356231   4.961011   2.489370   0.000000
 Stoichiometry    C13H14ClNO5
 Framework group  C1[X(C13H14ClNO5)]
 Deg. of freedom    96
 Full point group                 C1      NOp   1
 Largest Abelian subgroup         C1      NOp   1
 Largest concise Abelian subgroup C1      NOp   1
                         Standard orientation:                         
 ---------------------------------------------------------------------
 Center     Atomic      Atomic             Coordinates (Angstroms)
 Number     Number       Type             X           Y           Z
 ---------------------------------------------------------------------
      1          8           0        0.359455   -2.260519   -0.778166
      2          6           0        1.414941   -1.482937   -0.508607
      3          6           0        1.329614   -0.084742   -0.379078
      4          6           0        0.043185    0.583923   -0.530726
      5          7           0       -1.068470    0.000478   -0.803970
      6          6           0       -2.076351    1.061103   -0.930272
      7          6           0       -3.459614    0.664049   -0.384805
      8          8           0       -4.174963   -0.092086   -1.348110
      9          6           0       -3.460549   -0.040968    0.982459
     10          6           0       -2.671533   -1.323879    1.007745
     11          8           0       -1.783334   -1.373188    1.998795
     12          8           0       -2.873808   -2.268348    0.274001
     13          6           0       -1.362909    2.306526   -0.333719
     14          6           0       -1.674891    2.701040    1.096103
     15          8           0        0.043176    1.921159   -0.384144
     16          6           0        2.475059    0.665826   -0.098730
     17          6           0        3.686791    0.025344    0.053648
     18         17           0        5.121892    0.963970    0.403919
     19          6           0        3.786072   -1.360270   -0.066882
     20          6           0        2.655318   -2.105258   -0.347245
     21          1           0       -0.432013   -1.679926   -0.911867
     22          1           0       -2.244695    1.232892   -2.001678
     23          1           0       -4.039414    1.587459   -0.265413
     24          1           0       -3.762301   -0.969672   -1.442969
     25          1           0       -4.500119   -0.307543    1.202802
     26          1           0       -3.105739    0.616784    1.775427
     27          1           0       -1.332501   -2.248114    1.978997
     28          1           0       -1.473507    3.163344   -1.001519
     29          1           0       -1.390868    1.906133    1.790716
     30          1           0       -1.102109    3.595618    1.352221
     31          1           0       -2.739667    2.927271    1.216032
     32          1           0        2.397136    1.745391    0.000046
     33          1           0        4.748438   -1.849641    0.057521
     34          1           0        2.709476   -3.185509   -0.447507
 ---------------------------------------------------------------------
 Rotational constants (GHZ):      0.5884120      0.1845609      0.1586431
 Standard basis: 6-311+G(2d,p) (5D, 7F)
 There are   632 symmetry adapted basis functions of A   symmetry.
 Integral buffers will be    131072 words long.
 Raffenetti 2 integral format.
 Two-electron integral symmetry is turned on.
   632 basis functions,   969 primitive gaussians,   672 cartesian basis functions
    78 alpha electrons       78 beta electrons
       nuclear repulsion energy      1753.6227418332 Hartrees.
 NAtoms=   34 NActive=   34 NUniq=   34 SFac= 1.00D+00 NAtFMM=   50 NAOKFM=F Big=F
 Using the following non-standard input for PCM:
 radii=bondi
 --- end of non-standard input.
 ------------------------------------------------------------------------------
 Polarizable Continuum Model (PCM)
 =================================
 Model                : PCM.
 Atomic radii         : Bondi.
 Polarization charges : Total charges.
 Charge compensation  : None.
 Solution method      : Matrix inversion.
 Cavity type          : Scaled VdW (van der Waals Surface) (Alpha=1.100).
 Cavity algorithm     : GePol (No added spheres)
                        Default sphere list used, NSphG=   34.
                        Lebedev-Laikov grids with approx.  5.0 points / Ang**2.
                        Smoothing algorithm: Karplus/York (Gamma=1.0000).
                        Polarization charges: spherical gaussians, with
                                              point-specific exponents (IZeta= 3).
                        Self-potential: point-specific (ISelfS= 7).
                        Self-field    : sphere-specific E.n sum rule (ISelfD= 2).
 Solvent              : Methanol, Eps=  32.613000 Eps(inf)=   1.765709
 ------------------------------------------------------------------------------
 One-electron integrals computed using PRISM.
 NBasis=   632 RedAO= T  NBF=   632
 NBsUse=   630 1.00D-06 NBFU=   630
 Initial guess read from the checkpoint file:  1b-conf-9.chk
 B after Tr=     0.000000    0.000000    0.000000
         Rot=    1.000000    0.000000    0.000000    0.000000 Ang=   0.00 deg.
 Initial guess orbital symmetries:
       Occupied  (A) (A) (A) (A) (A) (A) (A) (A) (A) (A) (A) (A)
                 (A) (A) (A) (A) (A) (A) (A) (A) (A) (A) (A) (A)
                 (A) (A) (A) (A) (A) (A) (A) (A) (A) (A) (A) (A)
                 (A) (A) (A) (A) (A) (A) (A) (A) (A) (A) (A) (A)
                 (A) (A) (A) (A) (A) (A) (A) (A) (A) (A) (A) (A)
                 (A) (A) (A) (A) (A) (A) (A) (A) (A) (A) (A) (A)
                 (A) (A) (A) (A) (A) (A)
       Virtual   (A) (A) (A) (A) (A) (A) (A) (A) (A) (A) (A) (A)
                 (A) (A) (A) (A) (A) (A) (A) (A) (A) (A) (A) (A)
                 (A) (A) (A) (A) (A) (A) (A) (A) (A) (A) (A) (A)
                 (A) (A) (A) (A) (A) (A) (A) (A) (A) (A) (A) (A)
                 (A) (A) (A) (A) (A) (A) (A) (A) (A) (A) (A) (A)
                 (A) (A) (A) (A) (A) (A) (A) (A) (A) (A) (A) (A)
                 (A) (A) (A) (A) (A) (A) (A) (A) (A) (A) (A) (A)
                 (A) (A) (A) (A) (A) (A) (A) (A) (A) (A) (A) (A)
                 (A) (A) (A) (A) (A) (A) (A) (A) (A) (A) (A) (A)
                 (A) (A) (A) (A) (A) (A) (A) (A) (A) (A) (A) (A)
                 (A) (A) (A) (A) (A) (A) (A) (A) (A) (A) (A) (A)
                 (A) (A) (A) (A) (A) (A) (A) (A) (A) (A) (A) (A)
                 (A) (A) (A) (A) (A) (A) (A) (A) (A) (A) (A) (A)
                 (A) (A) (A) (A) (A) (A) (A) (A) (A) (A) (A) (A)
                 (A) (A) (A) (A) (A) (A) (A) (A) (A) (A) (A) (A)
                 (A) (A) (A) (A) (A) (A) (A) (A) (A) (A) (A) (A)
                 (A) (A) (A) (A) (A) (A) (A) (A) (A) (A) (A) (A)
                 (A) (A) (A) (A) (A) (A) (A) (A) (A) (A) (A) (A)
                 (A) (A) (A) (A) (A) (A) (A) (A) (A) (A) (A) (A)
                 (A) (A) (A) (A) (A) (A) (A) (A) (A) (A) (A) (A)
                 (A) (A) (A) (A) (A) (A) (A) (A) (A) (A) (A) (A)
                 (A) (A) (A) (A) (A) (A) (A) (A) (A) (A) (A) (A)
                 (A) (A) (A) (A) (A) (A) (A) (A) (A) (A) (A) (A)
                 (A) (A) (A) (A) (A) (A) (A) (A) (A) (A) (A) (A)
                 (A) (A) (A) (A) (A) (A) (A) (A) (A) (A) (A) (A)
                 (A) (A) (A) (A) (A) (A) (A) (A) (A) (A) (A) (A)
                 (A) (A) (A) (A) (A) (A) (A) (A) (A) (A) (A) (A)
                 (A) (A) (A) (A) (A) (A) (A) (A) (A) (A) (A) (A)
                 (A) (A) (A) (A) (A) (A) (A) (A) (A) (A) (A) (A)
                 (A) (A) (A) (A) (A) (A) (A) (A) (A) (A) (A) (A)
                 (A) (A) (A) (A) (A) (A) (A) (A) (A) (A) (A) (A)
                 (A) (A) (A) (A) (A) (A) (A) (A) (A) (A) (A) (A)
                 (A) (A) (A) (A) (A) (A) (A) (A) (A) (A) (A) (A)
                 (A) (A) (A) (A) (A) (A) (A) (A) (A) (A) (A) (A)
                 (A) (A) (A) (A) (A) (A) (A) (A) (A) (A) (A) (A)
                 (A) (A) (A) (A) (A) (A) (A) (A) (A) (A) (A) (A)
                 (A) (A) (A) (A) (A) (A) (A) (A) (A) (A) (A) (A)
                 (A) (A) (A) (A) (A) (A) (A) (A) (A) (A) (A) (A)
                 (A) (A) (A) (A) (A) (A) (A) (A) (A) (A) (A) (A)
                 (A) (A) (A) (A) (A) (A) (A) (A) (A) (A) (A) (A)
                 (A) (A) (A) (A) (A) (A) (A) (A) (A) (A) (A) (A)
                 (A) (A) (A) (A) (A) (A) (A) (A) (A) (A) (A) (A)
                 (A) (A) (A) (A) (A) (A) (A) (A) (A) (A) (A) (A)
                 (A) (A) (A) (A) (A) (A) (A) (A) (A) (A) (A) (A)
                 (A) (A) (A) (A) (A) (A) (A) (A) (A) (A) (A) (A)
                 (A) (A) (A) (A) (A) (A) (A) (A) (A) (A) (A) (A)
 Requested convergence on RMS density matrix=1.00D-08 within 128 cycles.
 Requested convergence on MAX density matrix=1.00D-06.
 Requested convergence on             energy=1.00D-06.
 No special actions if energy rises.
 Error on total polarization charges =  0.04994
 SCF Done:  E(RB3LYP) =  -1395.25074424     A.U. after   13 cycles
             Convg  =    0.4906D-08             -V/T =  2.0033
 Range of M.O.s used for correlation:     1   630
 NBasis=   632 NAE=    78 NBE=    78 NFC=     0 NFV=     0
 NROrb=    630 NOA=    78 NOB=    78 NVA=   552 NVB=   552

 **** Warning!!: The largest alpha MO coefficient is  0.16359080D+03

 NEqPCM:  Using equilibrium solvation (IEInf=0, Eps=  32.6130, EpsInf=   1.7657)
          Differentiating once with respect to magnetic field using GIAOs.
          Electric field/nuclear overlap derivatives assumed to be zero.
 FoFCou: FMM=F IPFlag=           0 FMFlag=    10101102 FMFlg1=           0
         NFxFlg=    40000000 DoJE=F BraDBF=F KetDBF=T FulRan=T
         Omega=  0.000000  0.000000  1.000000  0.000000  0.000000 ICntrl=    6100 IOpCl=  0
         NMat0=    1 NMatS0=    1 NMatT0=    0 NMatD0=    1 NMtDS0=    0 NMtDT0=    0
         I1Cent=           7 NGrid=        2486.
 Symmetry not used in FoFCou.
          There are     3 degrees of freedom in the 1st order CPHF.  IDoFFX=0.
      3 vectors produced by pass  0 Test12= 1.44D-12 3.33D-08 XBig12= 5.46D+02 9.74D+00.
 AX will form     3 AO Fock derivatives at one time.
      3 vectors produced by pass  1 Test12= 1.44D-12 3.33D-08 XBig12= 1.08D+00 3.38D-01.
      3 vectors produced by pass  2 Test12= 1.44D-12 3.33D-08 XBig12= 4.70D-03 3.99D-02.
      3 vectors produced by pass  3 Test12= 1.44D-12 3.33D-08 XBig12= 1.75D-05 1.39D-03.
      3 vectors produced by pass  4 Test12= 1.44D-12 3.33D-08 XBig12= 3.97D-08 4.91D-05.
      3 vectors produced by pass  5 Test12= 1.44D-12 3.33D-08 XBig12= 1.52D-10 3.63D-06.
      3 vectors produced by pass  6 Test12= 1.44D-12 3.33D-08 XBig12= 5.53D-13 2.25D-07.
 Inverted reduced A of dimension    21 with in-core refinement.
 Calculating GIAO nuclear magnetic shielding tensors.
 SCF GIAO Magnetic shielding tensor (ppm):
  1  O    Isotropic =   191.1138   Anisotropy =   132.6650
   XX=   158.7749   YX=    35.9580   ZX=   -16.7561
   XY=    20.1621   YY=   136.1659   ZY=    -9.5000
   XZ=    -6.8539   YZ=    13.7440   ZZ=   278.4005
   Eigenvalues:   116.7826   177.0016   279.5571
  2  C    Isotropic =    17.5770   Anisotropy =   150.8714
   XX=   -34.8381   YX=   -26.9953   ZX=   -31.6024
   XY=   -24.4662   YY=   -22.8105   ZY=   -18.5582
   XZ=   -32.9913   YZ=   -15.2180   ZZ=   110.3797
   Eigenvalues:   -62.6866    -2.7403   118.1580
  3  C    Isotropic =    66.5156   Anisotropy =   141.6916
   XX=    11.9857   YX=    22.2882   ZX=   -24.5528
   XY=    10.5585   YY=    32.0831   ZY=   -11.6317
   XZ=   -25.2168   YZ=    -9.0046   ZZ=   155.4779
   Eigenvalues:     0.8466    37.7235   160.9766
  4  C    Isotropic =     9.8025   Anisotropy =    88.4855
   XX=    24.0761   YX=    38.0731   ZX=    -5.0288
   XY=    44.6574   YY=   -58.0922   ZY=    -7.4120
   XZ=   -13.3339   YZ=   -10.7449   ZZ=    63.4236
   Eigenvalues:   -75.4800    36.0947    68.7928
  5  N    Isotropic =    27.4759   Anisotropy =   247.6665
   XX=   -52.8876   YX=    89.9470   ZX=   -42.8482
   XY=    69.9791   YY=   -45.7056   ZY=    -6.1752
   XZ=   -38.2198   YZ=   -31.7360   ZZ=   181.0209
   Eigenvalues:  -130.2136    20.0544   192.5869
  6  C    Isotropic =   102.8851   Anisotropy =    30.1501
   XX=   120.5197   YX=     2.3296   ZX=    -3.1825
   XY=   -13.9795   YY=   109.1463   ZY=     0.9130
   XZ=     6.8012   YZ=    11.2592   ZZ=    78.9894
   Eigenvalues:    77.6092   108.0610   122.9852
  7  C    Isotropic =   109.1509   Anisotropy =    53.4240
   XX=   104.6642   YX=    19.8449   ZX=    14.1297
   XY=    19.7993   YY=   101.9305   ZY=    16.0156
   XZ=    15.8608   YZ=    18.3407   ZZ=   120.8580
   Eigenvalues:    83.2098    99.4760   144.7669
  8  O    Isotropic =   260.9444   Anisotropy =    39.2151
   XX=   268.5407   YX=    29.4238   ZX=     8.0554
   XY=    25.3938   YY=   233.8744   ZY=    -6.6196
   XZ=     6.9171   YZ=    -1.8886   ZZ=   280.4180
   Eigenvalues:   217.9122   277.8331   287.0878
  9  C    Isotropic =   142.9407   Anisotropy =    16.0149
   XX=   138.4930   YX=     0.9244   ZX=     5.7732
   XY=    -5.1963   YY=   149.3542   ZY=    -9.4322
   XZ=    -5.5780   YZ=    -4.6936   ZZ=   140.9748
   Eigenvalues:   136.4388   138.7660   153.6173
 10  C    Isotropic =    -1.8176   Anisotropy =   119.1259
   XX=   -13.8039   YX=    56.1432   ZX=   -67.5811
   XY=    35.9211   YY=     9.7643   ZY=    -0.3140
   XZ=   -82.2520   YZ=    19.6895   ZZ=    -1.4131
   Eigenvalues:   -98.3941    15.3417    77.5997
 11  O    Isotropic =   103.2379   Anisotropy =   179.1645
   XX=   174.7452   YX=   -22.4794   ZX=    39.0944
   XY=    53.0933   YY=   -18.7090   ZY=   -32.8301
   XZ=    66.1251   YZ=  -103.9955   ZZ=   153.6774
   Eigenvalues:   -47.2948   134.3275   222.6808
 12  O    Isotropic =   -60.2265   Anisotropy =   481.8959
   XX=    -2.8795   YX=    41.8657   ZX=  -257.9526
   XY=   100.9081   YY=  -120.1342   ZY=  -118.7529
   XZ=  -230.2805   YZ=  -115.8866   ZZ=   -57.6657
   Eigenvalues:  -287.8444  -153.8726   261.0374
 13  C    Isotropic =   100.0013   Anisotropy =    78.5037
   XX=   148.4051   YX=   -19.1010   ZX=     1.4140
   XY=   -14.2127   YY=    77.6308   ZY=     4.6600
   XZ=    -3.5363   YZ=    22.3281   ZZ=    73.9679
   Eigenvalues:    60.9129    86.7538   152.3371
 14  C    Isotropic =   164.8782   Anisotropy =    20.6478
   XX=   168.4297   YX=    -3.1317   ZX=    -0.8476
   XY=    -5.3637   YY=   152.8121   ZY=     3.8560
   XZ=    -9.9416   YZ=     6.8608   ZZ=   173.3927
   Eigenvalues:   150.9887   165.0024   178.6434
 15  O    Isotropic =   119.2454   Anisotropy =   112.2370
   XX=    38.3007   YX=    -4.3716   ZX=   -12.7377
   XY=    12.2579   YY=   181.8496   ZY=    26.5786
   XZ=   -42.6014   YZ=    24.8244   ZZ=   137.5861
   Eigenvalues:    30.3887   133.2775   194.0701
 16  C    Isotropic =    49.2882   Anisotropy =   155.4480
   XX=    40.9949   YX=     2.4313   ZX=   -20.0171
   XY=    -4.8401   YY=   -40.2779   ZY=   -20.4940
   XZ=   -20.6084   YZ=   -20.0923   ZZ=   147.1477
   Eigenvalues:   -42.5885    37.5330   152.9202
 17  C    Isotropic =    48.5892   Anisotropy =    98.4502
   XX=     1.3552   YX=   -51.1641   ZX=   -25.5947
   XY=   -50.3462   YY=    36.5623   ZY=   -16.8432
   XZ=   -25.6061   YZ=   -17.3220   ZZ=   107.8502
   Eigenvalues:   -41.1155    72.6605   114.2226
 18  Cl   Isotropic =   709.8782   Anisotropy =   499.0292
   XX=   872.8516   YX=   226.9164   ZX=    78.5183
   XY=   225.3626   YY=   682.4795   ZY=    52.2927
   XZ=    80.6062   YZ=    53.9357   ZZ=   574.3035
   Eigenvalues:   532.3074   554.7628  1042.5643
 19  C    Isotropic =    43.2637   Anisotropy =   162.0268
   XX=   -28.6875   YX=    38.3648   ZX=   -28.9018
   XY=    38.7599   YY=    13.1708   ZY=    -6.8403
   XZ=   -27.9819   YZ=    -8.6861   ZZ=   145.3078
   Eigenvalues:   -53.7934    32.3030   151.2816
 20  C    Isotropic =    60.1262   Anisotropy =   146.1961
   XX=    51.3226   YX=     4.0936   ZX=   -19.3181
   XY=     6.2213   YY=   -22.9760   ZY=   -17.0718
   XZ=   -19.0953   YZ=   -19.8614   ZZ=   152.0319
   Eigenvalues:   -25.0358    47.8241   157.5903
 21  H    Isotropic =    20.7795   Anisotropy =    23.0477
   XX=    27.9984   YX=   -10.3679   ZX=     1.5263
   XY=    -7.5426   YY=    26.2225   ZY=     0.7279
   XZ=     1.0793   YZ=    -0.8034   ZZ=     8.1177
   Eigenvalues:     8.0118    18.1821    36.1447
 22  H    Isotropic =    26.9119   Anisotropy =     5.2859
   XX=    26.2026   YX=     0.6352   ZX=     0.9308
   XY=     0.2751   YY=    26.1369   ZY=    -1.7543
   XZ=     4.1203   YZ=    -1.7984   ZZ=    28.3963
   Eigenvalues:    23.7074    26.5926    30.4358
 23  H    Isotropic =    27.5081   Anisotropy =     4.6343
   XX=    28.2964   YX=    -0.1221   ZX=     2.0885
   XY=    -1.9497   YY=    29.8271   ZY=     1.3881
   XZ=     1.1811   YZ=     2.5592   ZZ=    24.4007
   Eigenvalues:    23.0807    28.8459    30.5977
 24  H    Isotropic =    27.9774   Anisotropy =    14.5621
   XX=    24.0228   YX=    -3.6711   ZX=     2.8266
   XY=    -3.7526   YY=    36.1018   ZY=     3.4622
   XZ=     3.3336   YZ=     3.7190   ZZ=    23.8075
   Eigenvalues:    19.2518    26.9948    37.6855
 25  H    Isotropic =    28.9726   Anisotropy =     7.4657
   XX=    32.1934   YX=     0.6284   ZX=    -1.9688
   XY=     0.2899   YY=    26.8045   ZY=    -0.4982
   XZ=    -4.3763   YZ=    -0.7422   ZZ=    27.9199
   Eigenvalues:    26.0683    26.8997    33.9497
 26  H    Isotropic =    28.9259   Anisotropy =     3.7659
   XX=    27.4411   YX=     0.7757   ZX=     0.5497
   XY=     1.8755   YY=    29.4935   ZY=     1.8597
   XZ=     0.2930   YZ=     0.9125   ZZ=    29.8430
   Eigenvalues:    26.7691    28.5721    31.4365
 27  H    Isotropic =    24.9381   Anisotropy =     9.8031
   XX=    25.7483   YX=    -5.7378   ZX=    -0.5759
   XY=    -2.9848   YY=    26.1793   ZY=    -2.4028
   XZ=     0.2914   YZ=    -6.0419   ZZ=    22.8868
   Eigenvalues:    18.8352    24.5057    31.4735
 28  H    Isotropic =    26.6100   Anisotropy =     5.4242
   XX=    25.1126   YX=    -1.4177   ZX=     0.8036
   XY=    -0.0873   YY=    28.2476   ZY=    -2.5183
   XZ=     0.5057   YZ=    -2.5272   ZZ=    26.4697
   Eigenvalues:    24.6487    24.9551    30.2261
 29  H    Isotropic =    30.5962   Anisotropy =     3.9536
   XX=    27.8439   YX=    -0.0102   ZX=     0.9032
   XY=     0.7776   YY=    31.1414   ZY=    -0.7895
   XZ=     0.0579   YZ=    -1.0634   ZZ=    32.8032
   Eigenvalues:    27.7298    30.8268    33.2319
 30  H    Isotropic =    30.3589   Anisotropy =     9.5263
   XX=    28.5201   YX=     2.7886   ZX=     0.1392
   XY=     2.8295   YY=    33.6668   ZY=     3.1496
   XZ=     0.6555   YZ=     4.6329   ZZ=    28.8899
   Eigenvalues:    26.0966    28.2704    36.7098
 31  H    Isotropic =    30.7214   Anisotropy =     8.2073
   XX=    34.0392   YX=    -1.6770   ZX=    -1.8538
   XY=    -1.7389   YY=    30.2321   ZY=     2.7695
   XZ=    -3.1789   YZ=     3.1776   ZZ=    27.8929
   Eigenvalues:    25.6919    30.2794    36.1929
 32  H    Isotropic =    23.6395   Anisotropy =    12.6203
   XX=    31.7938   YX=    -0.8215   ZX=     1.8380
   XY=    -0.5355   YY=    20.9724   ZY=     0.1418
   XZ=     1.6539   YZ=     0.0671   ZZ=    18.1524
   Eigenvalues:    17.9207    20.9448    32.0530
 33  H    Isotropic =    24.0707   Anisotropy =     7.1730
   XX=    24.1077   YX=     2.2263   ZX=     0.8241
   XY=     1.5520   YY=    27.8516   ZY=     1.0801
   XZ=     0.8150   YZ=     1.1696   ZZ=    20.2529
   Eigenvalues:    20.0090    23.3505    28.8527
 34  H    Isotropic =    24.5402   Anisotropy =     5.9043
   XX=    28.3414   YX=    -0.7523   ZX=     1.0231
   XY=     0.2996   YY=    24.1816   ZY=     0.5287
   XZ=     0.9249   YZ=     0.4010   ZZ=    21.0975
   Eigenvalues:    20.8956    24.2486    28.4764
 End of Minotr Frequency-dependent properties file   721 does not exist.
 End of Minotr Frequency-dependent properties file   722 does not exist.

 **********************************************************************

            Population analysis using the SCF density.

 **********************************************************************

 Orbital symmetries:
       Occupied  (A) (A) (A) (A) (A) (A) (A) (A) (A) (A) (A) (A)
                 (A) (A) (A) (A) (A) (A) (A) (A) (A) (A) (A) (A)
                 (A) (A) (A) (A) (A) (A) (A) (A) (A) (A) (A) (A)
                 (A) (A) (A) (A) (A) (A) (A) (A) (A) (A) (A) (A)
                 (A) (A) (A) (A) (A) (A) (A) (A) (A) (A) (A) (A)
                 (A) (A) (A) (A) (A) (A) (A) (A) (A) (A) (A) (A)
                 (A) (A) (A) (A) (A) (A)
       Virtual   (A) (A) (A) (A) (A) (A) (A) (A) (A) (A) (A) (A)
                 (A) (A) (A) (A) (A) (A) (A) (A) (A) (A) (A) (A)
                 (A) (A) (A) (A) (A) (A) (A) (A) (A) (A) (A) (A)
                 (A) (A) (A) (A) (A) (A) (A) (A) (A) (A) (A) (A)
                 (A) (A) (A) (A) (A) (A) (A) (A) (A) (A) (A) (A)
                 (A) (A) (A) (A) (A) (A) (A) (A) (A) (A) (A) (A)
                 (A) (A) (A) (A) (A) (A) (A) (A) (A) (A) (A) (A)
                 (A) (A) (A) (A) (A) (A) (A) (A) (A) (A) (A) (A)
                 (A) (A) (A) (A) (A) (A) (A) (A) (A) (A) (A) (A)
                 (A) (A) (A) (A) (A) (A) (A) (A) (A) (A) (A) (A)
                 (A) (A) (A) (A) (A) (A) (A) (A) (A) (A) (A) (A)
                 (A) (A) (A) (A) (A) (A) (A) (A) (A) (A) (A) (A)
                 (A) (A) (A) (A) (A) (A) (A) (A) (A) (A) (A) (A)
                 (A) (A) (A) (A) (A) (A) (A) (A) (A) (A) (A) (A)
                 (A) (A) (A) (A) (A) (A) (A) (A) (A) (A) (A) (A)
                 (A) (A) (A) (A) (A) (A) (A) (A) (A) (A) (A) (A)
                 (A) (A) (A) (A) (A) (A) (A) (A) (A) (A) (A) (A)
                 (A) (A) (A) (A) (A) (A) (A) (A) (A) (A) (A) (A)
                 (A) (A) (A) (A) (A) (A) (A) (A) (A) (A) (A) (A)
                 (A) (A) (A) (A) (A) (A) (A) (A) (A) (A) (A) (A)
                 (A) (A) (A) (A) (A) (A) (A) (A) (A) (A) (A) (A)
                 (A) (A) (A) (A) (A) (A) (A) (A) (A) (A) (A) (A)
                 (A) (A) (A) (A) (A) (A) (A) (A) (A) (A) (A) (A)
                 (A) (A) (A) (A) (A) (A) (A) (A) (A) (A) (A) (A)
                 (A) (A) (A) (A) (A) (A) (A) (A) (A) (A) (A) (A)
                 (A) (A) (A) (A) (A) (A) (A) (A) (A) (A) (A) (A)
                 (A) (A) (A) (A) (A) (A) (A) (A) (A) (A) (A) (A)
                 (A) (A) (A) (A) (A) (A) (A) (A) (A) (A) (A) (A)
                 (A) (A) (A) (A) (A) (A) (A) (A) (A) (A) (A) (A)
                 (A) (A) (A) (A) (A) (A) (A) (A) (A) (A) (A) (A)
                 (A) (A) (A) (A) (A) (A) (A) (A) (A) (A) (A) (A)
                 (A) (A) (A) (A) (A) (A) (A) (A) (A) (A) (A) (A)
                 (A) (A) (A) (A) (A) (A) (A) (A) (A) (A) (A) (A)
                 (A) (A) (A) (A) (A) (A) (A) (A) (A) (A) (A) (A)
                 (A) (A) (A) (A) (A) (A) (A) (A) (A) (A) (A) (A)
                 (A) (A) (A) (A) (A) (A) (A) (A) (A) (A) (A) (A)
                 (A) (A) (A) (A) (A) (A) (A) (A) (A) (A) (A) (A)
                 (A) (A) (A) (A) (A) (A) (A) (A) (A) (A) (A) (A)
                 (A) (A) (A) (A) (A) (A) (A) (A) (A) (A) (A) (A)
                 (A) (A) (A) (A) (A) (A) (A) (A) (A) (A) (A) (A)
                 (A) (A) (A) (A) (A) (A) (A) (A) (A) (A) (A) (A)
                 (A) (A) (A) (A) (A) (A) (A) (A) (A) (A) (A) (A)
                 (A) (A) (A) (A) (A) (A) (A) (A) (A) (A) (A) (A)
                 (A) (A) (A) (A) (A) (A) (A) (A) (A) (A) (A) (A)
                 (A) (A) (A) (A) (A) (A) (A) (A) (A) (A) (A) (A)
                 (A) (A) (A) (A) (A) (A) (A) (A) (A) (A) (A) (A)
 The electronic state is 1-A.
 Alpha  occ. eigenvalues -- -101.55931 -19.18070 -19.17464 -19.15709 -19.13330
 Alpha  occ. eigenvalues --  -19.12305 -14.31395 -10.31767 -10.28361 -10.25485
 Alpha  occ. eigenvalues --  -10.24051 -10.24043 -10.23693 -10.21474 -10.20279
 Alpha  occ. eigenvalues --  -10.19692 -10.19595 -10.18624 -10.18449 -10.16503
 Alpha  occ. eigenvalues --   -9.47382  -7.23817  -7.22878  -7.22853  -1.12389
 Alpha  occ. eigenvalues --   -1.11229  -1.07672  -1.03960  -1.02904  -0.92603
 Alpha  occ. eigenvalues --   -0.90250  -0.85110  -0.81923  -0.78698  -0.76836
 Alpha  occ. eigenvalues --   -0.74122  -0.71903  -0.68207  -0.64698  -0.63507
 Alpha  occ. eigenvalues --   -0.61186  -0.59939  -0.58849  -0.55133  -0.53256
 Alpha  occ. eigenvalues --   -0.52588  -0.51433  -0.50546  -0.49823  -0.48599
 Alpha  occ. eigenvalues --   -0.47764  -0.46310  -0.46150  -0.45664  -0.44384
 Alpha  occ. eigenvalues --   -0.44017  -0.43153  -0.42289  -0.41874  -0.40811
 Alpha  occ. eigenvalues --   -0.40358  -0.39637  -0.39006  -0.38964  -0.38292
 Alpha  occ. eigenvalues --   -0.37487  -0.37304  -0.35998  -0.34223  -0.33798
 Alpha  occ. eigenvalues --   -0.32439  -0.32382  -0.30513  -0.29625  -0.29057
 Alpha  occ. eigenvalues --   -0.28494  -0.26258  -0.23407
 Alpha virt. eigenvalues --   -0.06184  -0.02025  -0.01299  -0.00026   0.00868
 Alpha virt. eigenvalues --    0.01293   0.01397   0.02262   0.02773   0.03282
 Alpha virt. eigenvalues --    0.03680   0.04107   0.04402   0.04591   0.05156
 Alpha virt. eigenvalues --    0.05787   0.06275   0.06633   0.06929   0.07639
 Alpha virt. eigenvalues --    0.07846   0.08185   0.08718   0.09118   0.09460
 Alpha virt. eigenvalues --    0.09729   0.10223   0.11087   0.11400   0.11521
 Alpha virt. eigenvalues --    0.12069   0.12486   0.13035   0.13597   0.13710
 Alpha virt. eigenvalues --    0.13910   0.13953   0.14566   0.14691   0.14922
 Alpha virt. eigenvalues --    0.15215   0.15538   0.15876   0.16239   0.16533
 Alpha virt. eigenvalues --    0.17096   0.17368   0.17763   0.17915   0.18166
 Alpha virt. eigenvalues --    0.18724   0.19058   0.19372   0.19688   0.19986
 Alpha virt. eigenvalues --    0.20172   0.20472   0.20895   0.21018   0.21369
 Alpha virt. eigenvalues --    0.21513   0.21931   0.22243   0.22789   0.23001
 Alpha virt. eigenvalues --    0.23433   0.23888   0.24003   0.24289   0.24675
 Alpha virt. eigenvalues --    0.25013   0.25868   0.26313   0.26792   0.26864
 Alpha virt. eigenvalues --    0.27013   0.27096   0.27640   0.27948   0.28362
 Alpha virt. eigenvalues --    0.28436   0.29063   0.29214   0.30056   0.30902
 Alpha virt. eigenvalues --    0.31094   0.31278   0.32047   0.32294   0.32528
 Alpha virt. eigenvalues --    0.33091   0.33409   0.33843   0.34307   0.34452
 Alpha virt. eigenvalues --    0.34921   0.35108   0.35396   0.35601   0.36116
 Alpha virt. eigenvalues --    0.36733   0.37426   0.37663   0.38342   0.39510
 Alpha virt. eigenvalues --    0.39786   0.40616   0.40873   0.42029   0.42218
 Alpha virt. eigenvalues --    0.42871   0.43698   0.44015   0.44538   0.45136
 Alpha virt. eigenvalues --    0.45587   0.45914   0.46525   0.47173   0.47908
 Alpha virt. eigenvalues --    0.48951   0.49196   0.49641   0.50602   0.50854
 Alpha virt. eigenvalues --    0.51143   0.52667   0.53285   0.53310   0.53384
 Alpha virt. eigenvalues --    0.53870   0.54650   0.55239   0.55949   0.56524
 Alpha virt. eigenvalues --    0.57750   0.58269   0.58523   0.58891   0.59408
 Alpha virt. eigenvalues --    0.60057   0.60152   0.61265   0.61506   0.61895
 Alpha virt. eigenvalues --    0.62621   0.63197   0.63535   0.63991   0.64167
 Alpha virt. eigenvalues --    0.65492   0.66479   0.66691   0.67106   0.67603
 Alpha virt. eigenvalues --    0.68006   0.68432   0.69683   0.69818   0.70236
 Alpha virt. eigenvalues --    0.70817   0.71776   0.72228   0.72740   0.73192
 Alpha virt. eigenvalues --    0.73578   0.74438   0.74675   0.76098   0.76929
 Alpha virt. eigenvalues --    0.77377   0.77708   0.78400   0.78709   0.79007
 Alpha virt. eigenvalues --    0.79598   0.80226   0.80902   0.81055   0.82210
 Alpha virt. eigenvalues --    0.82602   0.84041   0.84234   0.85579   0.86176
 Alpha virt. eigenvalues --    0.87074   0.87532   0.89827   0.90305   0.90718
 Alpha virt. eigenvalues --    0.91840   0.93500   0.94249   0.94521   0.95675
 Alpha virt. eigenvalues --    0.96281   0.97939   0.98545   0.99041   1.00071
 Alpha virt. eigenvalues --    1.01210   1.01798   1.02343   1.03431   1.03790
 Alpha virt. eigenvalues --    1.04168   1.05409   1.06437   1.06756   1.07206
 Alpha virt. eigenvalues --    1.08122   1.09843   1.10397   1.10979   1.11611
 Alpha virt. eigenvalues --    1.12363   1.13641   1.14902   1.15352   1.16062
 Alpha virt. eigenvalues --    1.16921   1.17129   1.17581   1.18131   1.19434
 Alpha virt. eigenvalues --    1.19903   1.20622   1.20888   1.21496   1.22175
 Alpha virt. eigenvalues --    1.23169   1.24220   1.24847   1.25650   1.25854
 Alpha virt. eigenvalues --    1.27035   1.27684   1.28503   1.29056   1.30549
 Alpha virt. eigenvalues --    1.30880   1.31662   1.32106   1.32786   1.33760
 Alpha virt. eigenvalues --    1.34934   1.35278   1.35785   1.36565   1.37104
 Alpha virt. eigenvalues --    1.38303   1.39012   1.39887   1.40052   1.41549
 Alpha virt. eigenvalues --    1.42283   1.42973   1.43725   1.44280   1.44952
 Alpha virt. eigenvalues --    1.46221   1.49467   1.50098   1.51868   1.51951
 Alpha virt. eigenvalues --    1.53406   1.53951   1.55161   1.57127   1.58173
 Alpha virt. eigenvalues --    1.59244   1.60081   1.61727   1.62318   1.62900
 Alpha virt. eigenvalues --    1.63685   1.65296   1.66899   1.68508   1.68886
 Alpha virt. eigenvalues --    1.71350   1.72361   1.73101   1.74463   1.74793
 Alpha virt. eigenvalues --    1.75354   1.76350   1.78199   1.79186   1.80088
 Alpha virt. eigenvalues --    1.81879   1.82715   1.84495   1.87178   1.88654
 Alpha virt. eigenvalues --    1.90155   1.91218   1.92218   1.92819   1.93321
 Alpha virt. eigenvalues --    1.94473   1.95818   1.96671   1.97650   2.00911
 Alpha virt. eigenvalues --    2.01959   2.04307   2.05027   2.06996   2.07716
 Alpha virt. eigenvalues --    2.09856   2.10745   2.13101   2.15025   2.17416
 Alpha virt. eigenvalues --    2.18489   2.19380   2.20128   2.21228   2.23295
 Alpha virt. eigenvalues --    2.25043   2.26847   2.27408   2.28480   2.29440
 Alpha virt. eigenvalues --    2.30637   2.32388   2.33810   2.34732   2.35066
 Alpha virt. eigenvalues --    2.36025   2.37676   2.38025   2.38984   2.39703
 Alpha virt. eigenvalues --    2.40802   2.42484   2.43599   2.45477   2.45832
 Alpha virt. eigenvalues --    2.48547   2.49114   2.49288   2.51069   2.51490
 Alpha virt. eigenvalues --    2.52229   2.55401   2.56064   2.58278   2.60136
 Alpha virt. eigenvalues --    2.62288   2.63737   2.63879   2.64482   2.65389
 Alpha virt. eigenvalues --    2.67962   2.68847   2.70186   2.70656   2.71969
 Alpha virt. eigenvalues --    2.75694   2.77681   2.78814   2.80163   2.82134
 Alpha virt. eigenvalues --    2.83753   2.83930   2.84463   2.85405   2.85778
 Alpha virt. eigenvalues --    2.87662   2.89057   2.90396   2.92037   2.93634
 Alpha virt. eigenvalues --    2.95338   2.96822   2.98970   2.99876   3.01220
 Alpha virt. eigenvalues --    3.01665   3.03822   3.05047   3.07277   3.07779
 Alpha virt. eigenvalues --    3.08959   3.10983   3.12605   3.13799   3.16840
 Alpha virt. eigenvalues --    3.18790   3.19498   3.22809   3.24751   3.26424
 Alpha virt. eigenvalues --    3.27737   3.29890   3.31896   3.32023   3.34564
 Alpha virt. eigenvalues --    3.35769   3.36731   3.37025   3.38079   3.39927
 Alpha virt. eigenvalues --    3.41612   3.42212   3.42354   3.42734   3.43794
 Alpha virt. eigenvalues --    3.44798   3.45818   3.47063   3.47559   3.49944
 Alpha virt. eigenvalues --    3.50549   3.52350   3.52601   3.54114   3.55456
 Alpha virt. eigenvalues --    3.55966   3.57100   3.57456   3.58410   3.59062
 Alpha virt. eigenvalues --    3.59286   3.60033   3.60913   3.62374   3.62845
 Alpha virt. eigenvalues --    3.63191   3.65401   3.67088   3.67570   3.69047
 Alpha virt. eigenvalues --    3.69587   3.70078   3.72760   3.73329   3.74863
 Alpha virt. eigenvalues --    3.75102   3.77000   3.77673   3.78438   3.79572
 Alpha virt. eigenvalues --    3.80652   3.81844   3.83615   3.84806   3.86013
 Alpha virt. eigenvalues --    3.87914   3.89544   3.91459   3.92296   3.95566
 Alpha virt. eigenvalues --    3.96368   3.99184   4.02379   4.02882   4.06648
 Alpha virt. eigenvalues --    4.07368   4.09830   4.11003   4.15945   4.19450
 Alpha virt. eigenvalues --    4.20779   4.22618   4.25152   4.27213   4.29554
 Alpha virt. eigenvalues --    4.35476   4.39733   4.41223   4.41650   4.49171
 Alpha virt. eigenvalues --    4.56149   4.57715   4.59600   4.75715   4.78058
 Alpha virt. eigenvalues --    4.87857   5.01534   5.07239   5.09023   5.11541
 Alpha virt. eigenvalues --    5.12803   5.16473   5.17089   5.21544   5.26288
 Alpha virt. eigenvalues --    5.26347   5.38043   5.41680   5.46384   5.48553
 Alpha virt. eigenvalues --    5.58195   5.60339   5.65105   5.77571   5.85104
 Alpha virt. eigenvalues --    5.93098   6.09123   6.13110   6.76801   6.84500
 Alpha virt. eigenvalues --    6.85932   6.87053   6.91354   6.96689   6.98435
 Alpha virt. eigenvalues --    6.99188   7.00969   7.01655   7.07056   7.07279
 Alpha virt. eigenvalues --    7.08640   7.10376   7.14290   7.14897   7.21119
 Alpha virt. eigenvalues --    7.23462   7.30949   7.31667   7.36389   7.36945
 Alpha virt. eigenvalues --    7.39192   7.41937   7.52833   9.89726  23.67027
 Alpha virt. eigenvalues --   23.89375  23.95424  23.96782  23.98878  24.01896
 Alpha virt. eigenvalues --   24.02073  24.03008  24.07225  24.09444  24.15430
 Alpha virt. eigenvalues --   24.19203  24.31782  25.87497  26.28833  27.41133
 Alpha virt. eigenvalues --   35.76846  49.96067  50.00389  50.04431  50.04809
 Alpha virt. eigenvalues --   50.06854 215.89921
          Condensed to atoms (all electrons):
              1          2          3          4          5          6
     1  O    8.391326   0.361061   0.097203  -0.039466   0.003852   0.004797
     2  C    0.361061  10.425074  -0.022007  -0.753966   0.066065   0.087533
     3  C    0.097203  -0.022007   8.429273   0.503137  -0.015379  -0.114562
     4  C   -0.039466  -0.753966   0.503137   6.695497   0.219132  -0.579395
     5  N    0.003852   0.066065  -0.015379   0.219132   7.284947   0.080085
     6  C    0.004797   0.087533  -0.114562  -0.579395   0.080085   8.092459
     7  C    0.011228   0.043268  -0.027466   0.054309  -0.045676  -1.575230
     8  O    0.001012  -0.008468   0.006152  -0.004343   0.021713  -0.042925
     9  C   -0.019157   0.094860  -0.054570  -0.115310  -0.057848   0.537719
    10  C    0.026524  -0.092856   0.071447  -0.096738   0.011644   0.043887
    11  O    0.002815   0.006658   0.012158  -0.040752   0.014988   0.016607
    12  O    0.007374  -0.004125  -0.010113   0.027622  -0.013433  -0.070884
    13  C   -0.006236  -0.133558   0.034043  -0.082444   0.213997  -0.937037
    14  C   -0.002571  -0.036608   0.014025  -0.047850   0.022025   0.066226
    15  O    0.000871  -0.076792  -0.041559   0.301444  -0.074482  -0.223298
    16  C    0.109348  -0.041184   0.865123  -0.636824  -0.110791  -0.427555
    17  C   -0.023032  -1.690977  -1.383642   0.315759  -0.088088   0.002707
    18  Cl   0.000317   0.096037   0.100952  -0.045634  -0.000059  -0.000106
    19  C    0.030139  -0.032147  -1.684134  -0.378871   0.007704  -0.043406
    20  C   -0.540443  -2.163881  -0.839164   0.151071  -0.005883   0.149230
    21  H    0.206819   0.033957  -0.083068  -0.049328   0.054980   0.016722
    22  H    0.000340   0.011214   0.002069   0.024344  -0.070993   0.465857
    23  H    0.000042  -0.000894   0.000868  -0.023746   0.004017  -0.059830
    24  H    0.000321  -0.007269   0.004635  -0.009044   0.006571  -0.028295
    25  H    0.000117  -0.000164  -0.000334  -0.000201   0.005589   0.002167
    26  H    0.000042   0.002768  -0.000897   0.002018  -0.005669   0.022059
    27  H    0.000281  -0.013375   0.009383   0.009924  -0.007904  -0.004793
    28  H    0.000008  -0.001846  -0.000336  -0.027105   0.007862  -0.036024
    29  H    0.000158  -0.003586   0.001199  -0.007631  -0.004770   0.027929
    30  H    0.000001   0.001554   0.005476  -0.004010   0.001295  -0.013452
    31  H    0.000014  -0.000738   0.000369   0.000013  -0.000144  -0.026381
    32  H   -0.000531   0.018625  -0.005973  -0.003362  -0.000340   0.001311
    33  H   -0.000749   0.031378  -0.009986  -0.000973   0.000013   0.000069
    34  H    0.002685  -0.236388  -0.000336   0.007371   0.000192   0.000439
              7          8          9         10         11         12
     1  O    0.011228   0.001012  -0.019157   0.026524   0.002815   0.007374
     2  C    0.043268  -0.008468   0.094860  -0.092856   0.006658  -0.004125
     3  C   -0.027466   0.006152  -0.054570   0.071447   0.012158  -0.010113
     4  C    0.054309  -0.004343  -0.115310  -0.096738  -0.040752   0.027622
     5  N   -0.045676   0.021713  -0.057848   0.011644   0.014988  -0.013433
     6  C   -1.575230  -0.042925   0.537719   0.043887   0.016607  -0.070884
     7  C    7.913922   0.252320  -0.826663  -0.067605  -0.023287   0.066557
     8  O    0.252320   8.129318  -0.047215  -0.040801  -0.001320  -0.005833
     9  C   -0.826663  -0.047215   6.152250  -0.015057  -0.043949  -0.063523
    10  C   -0.067605  -0.040801  -0.015057   4.992392   0.368930   0.458230
    11  O   -0.023287  -0.001320  -0.043949   0.368930   7.909920  -0.104263
    12  O    0.066557  -0.005833  -0.063523   0.458230  -0.104263   8.237375
    13  C   -0.031103   0.009365   0.018199  -0.004012   0.011790  -0.008419
    14  C   -0.126936   0.002382  -0.046630  -0.007697  -0.013292  -0.001085
    15  O    0.005107  -0.000605  -0.011552  -0.002760  -0.001056  -0.000023
    16  C   -0.031126  -0.000290  -0.057017   0.047052  -0.005721  -0.002681
    17  C   -0.004536   0.000007  -0.008458   0.003875   0.005140  -0.000310
    18  Cl   0.000193  -0.000001  -0.000010  -0.000082   0.000018   0.000001
    19  C   -0.008455   0.000035  -0.001063   0.008279  -0.001192  -0.000021
    20  C    0.018064  -0.001066   0.053351  -0.070518   0.005958   0.004639
    21  H   -0.006912  -0.001286   0.008059  -0.011061   0.003206  -0.002021
    22  H   -0.056472  -0.000695  -0.000919   0.003227  -0.000288  -0.000243
    23  H    0.497884  -0.060661  -0.035024   0.001005  -0.000914  -0.001040
    24  H    0.062399   0.271090  -0.021368   0.001194  -0.000011   0.009890
    25  H   -0.006624  -0.004370   0.406236  -0.067157   0.004368  -0.005576
    26  H   -0.054053   0.007377   0.447384  -0.055577  -0.004540   0.005468
    27  H    0.009740   0.000161  -0.019036   0.005953   0.270565   0.014154
    28  H    0.006311  -0.000820   0.001311  -0.000379   0.000002   0.000025
    29  H   -0.005639  -0.000253  -0.006417   0.003922   0.003561  -0.000088
    30  H    0.002386   0.000038   0.001555   0.001050   0.000065   0.000002
    31  H    0.020824   0.000205  -0.009465   0.000342  -0.000142  -0.000012
    32  H   -0.000830  -0.000001   0.000140   0.000042   0.000016   0.000001
    33  H    0.000000   0.000000   0.000003  -0.000009   0.000001   0.000000
    34  H    0.000017   0.000000  -0.000023  -0.000020   0.000004   0.000006
             13         14         15         16         17         18
     1  O   -0.006236  -0.002571   0.000871   0.109348  -0.023032   0.000317
     2  C   -0.133558  -0.036608  -0.076792  -0.041184  -1.690977   0.096037
     3  C    0.034043   0.014025  -0.041559   0.865123  -1.383642   0.100952
     4  C   -0.082444  -0.047850   0.301444  -0.636824   0.315759  -0.045634
     5  N    0.213997   0.022025  -0.074482  -0.110791  -0.088088  -0.000059
     6  C   -0.937037   0.066226  -0.223298  -0.427555   0.002707  -0.000106
     7  C   -0.031103  -0.126936   0.005107  -0.031126  -0.004536   0.000193
     8  O    0.009365   0.002382  -0.000605  -0.000290   0.000007  -0.000001
     9  C    0.018199  -0.046630  -0.011552  -0.057017  -0.008458  -0.000010
    10  C   -0.004012  -0.007697  -0.002760   0.047052   0.003875  -0.000082
    11  O    0.011790  -0.013292  -0.001056  -0.005721   0.005140   0.000018
    12  O   -0.008419  -0.001085  -0.000023  -0.002681  -0.000310   0.000001
    13  C    6.443151  -0.154429   0.348750   0.099435   0.006517  -0.000553
    14  C   -0.154429   5.791680  -0.137825  -0.000815  -0.009913   0.000008
    15  O    0.348750  -0.137825   8.327123   0.004292   0.077184  -0.000387
    16  C    0.099435  -0.000815   0.004292   9.104835   0.378544   0.219677
    17  C    0.006517  -0.009913   0.077184   0.378544   9.668172  -0.755077
    18  Cl  -0.000553   0.000008  -0.000387   0.219677  -0.755077  17.102866
    19  C    0.006015   0.000002  -0.001756  -0.849186  -1.439253   0.358721
    20  C   -0.056618  -0.016248   0.002678  -2.173185  -0.016806   0.025372
    21  H    0.000811   0.001540   0.002487  -0.042247   0.004980  -0.000007
    22  H   -0.069307   0.014013  -0.000876   0.000128  -0.001746   0.000006
    23  H    0.012607  -0.016328   0.000145  -0.000239   0.000070   0.000000
    24  H    0.013038  -0.001962   0.000061  -0.000003   0.000069   0.000000
    25  H   -0.002476   0.006686   0.000093  -0.000125   0.000008   0.000000
    26  H   -0.010074  -0.007922  -0.000030   0.000996   0.000063   0.000000
    27  H   -0.001340   0.001160   0.000161   0.003070   0.001057   0.000001
    28  H    0.468230  -0.054541  -0.035165   0.005662   0.001124   0.000015
    29  H   -0.041269   0.418487  -0.009116  -0.004047  -0.000521  -0.000009
    30  H    0.006139   0.383557  -0.001159  -0.005402  -0.001775  -0.000004
    31  H   -0.027445   0.405595   0.008276   0.001492   0.000167   0.000000
    32  H    0.004596  -0.001070   0.006254   0.394603  -0.088116  -0.009131
    33  H   -0.000025  -0.000001  -0.000008   0.020450  -0.071438  -0.004536
    34  H   -0.000130   0.000000   0.000010  -0.030987   0.062446  -0.000985
             19         20         21         22         23         24
     1  O    0.030139  -0.540443   0.206819   0.000340   0.000042   0.000321
     2  C   -0.032147  -2.163881   0.033957   0.011214  -0.000894  -0.007269
     3  C   -1.684134  -0.839164  -0.083068   0.002069   0.000868   0.004635
     4  C   -0.378871   0.151071  -0.049328   0.024344  -0.023746  -0.009044
     5  N    0.007704  -0.005883   0.054980  -0.070993   0.004017   0.006571
     6  C   -0.043406   0.149230   0.016722   0.465857  -0.059830  -0.028295
     7  C   -0.008455   0.018064  -0.006912  -0.056472   0.497884   0.062399
     8  O    0.000035  -0.001066  -0.001286  -0.000695  -0.060661   0.271090
     9  C   -0.001063   0.053351   0.008059  -0.000919  -0.035024  -0.021368
    10  C    0.008279  -0.070518  -0.011061   0.003227   0.001005   0.001194
    11  O   -0.001192   0.005958   0.003206  -0.000288  -0.000914  -0.000011
    12  O   -0.000021   0.004639  -0.002021  -0.000243  -0.001040   0.009890
    13  C    0.006015  -0.056618   0.000811  -0.069307   0.012607   0.013038
    14  C    0.000002  -0.016248   0.001540   0.014013  -0.016328  -0.001962
    15  O   -0.001756   0.002678   0.002487  -0.000876   0.000145   0.000061
    16  C   -0.849186  -2.173185  -0.042247   0.000128  -0.000239  -0.000003
    17  C   -1.439253  -0.016806   0.004980  -0.001746   0.000070   0.000069
    18  Cl   0.358721   0.025372  -0.000007   0.000006   0.000000   0.000000
    19  C   10.642196  -0.299860  -0.010378   0.000333  -0.000007  -0.000082
    20  C   -0.299860  11.253195   0.130399  -0.000277  -0.000054  -0.000747
    21  H   -0.010378   0.130399   0.278189  -0.001125  -0.000054  -0.000744
    22  H    0.000333  -0.000277  -0.001125   0.581381  -0.003773  -0.000812
    23  H   -0.000007  -0.000054  -0.000054  -0.003773   0.551210   0.007332
    24  H   -0.000082  -0.000747  -0.000744  -0.000812   0.007332   0.392650
    25  H   -0.000006   0.000059  -0.000047  -0.000250  -0.006870  -0.000638
    26  H    0.000076   0.000062  -0.000095  -0.000147  -0.005973  -0.000496
    27  H   -0.000263  -0.005480  -0.000629  -0.000021   0.000025   0.000002
    28  H   -0.000017  -0.000239   0.000000  -0.012373  -0.000878  -0.000005
    29  H   -0.000271  -0.000430  -0.000068  -0.000275   0.000193   0.000010
    30  H   -0.000088   0.000098  -0.000002  -0.000092   0.000032   0.000000
    31  H    0.000014  -0.000126  -0.000015  -0.000262  -0.000166  -0.000031
    32  H    0.014254   0.002894   0.000109  -0.000019   0.000000   0.000000
    33  H    0.418667  -0.046265   0.000026   0.000000   0.000000   0.000000
    34  H   -0.100727   0.647640   0.000918   0.000000   0.000000   0.000000
             25         26         27         28         29         30
     1  O    0.000117   0.000042   0.000281   0.000008   0.000158   0.000001
     2  C   -0.000164   0.002768  -0.013375  -0.001846  -0.003586   0.001554
     3  C   -0.000334  -0.000897   0.009383  -0.000336   0.001199   0.005476
     4  C   -0.000201   0.002018   0.009924  -0.027105  -0.007631  -0.004010
     5  N    0.005589  -0.005669  -0.007904   0.007862  -0.004770   0.001295
     6  C    0.002167   0.022059  -0.004793  -0.036024   0.027929  -0.013452
     7  C   -0.006624  -0.054053   0.009740   0.006311  -0.005639   0.002386
     8  O   -0.004370   0.007377   0.000161  -0.000820  -0.000253   0.000038
     9  C    0.406236   0.447384  -0.019036   0.001311  -0.006417   0.001555
    10  C   -0.067157  -0.055577   0.005953  -0.000379   0.003922   0.001050
    11  O    0.004368  -0.004540   0.270565   0.000002   0.003561   0.000065
    12  O   -0.005576   0.005468   0.014154   0.000025  -0.000088   0.000002
    13  C   -0.002476  -0.010074  -0.001340   0.468230  -0.041269   0.006139
    14  C    0.006686  -0.007922   0.001160  -0.054541   0.418487   0.383557
    15  O    0.000093  -0.000030   0.000161  -0.035165  -0.009116  -0.001159
    16  C   -0.000125   0.000996   0.003070   0.005662  -0.004047  -0.005402
    17  C    0.000008   0.000063   0.001057   0.001124  -0.000521  -0.001775
    18  Cl   0.000000   0.000000   0.000001   0.000015  -0.000009  -0.000004
    19  C   -0.000006   0.000076  -0.000263  -0.000017  -0.000271  -0.000088
    20  C    0.000059   0.000062  -0.005480  -0.000239  -0.000430   0.000098
    21  H   -0.000047  -0.000095  -0.000629   0.000000  -0.000068  -0.000002
    22  H   -0.000250  -0.000147  -0.000021  -0.012373  -0.000275  -0.000092
    23  H   -0.006870  -0.005973   0.000025  -0.000878   0.000193   0.000032
    24  H   -0.000638  -0.000496   0.000002  -0.000005   0.000010   0.000000
    25  H    0.517255  -0.027057  -0.000436   0.000042   0.000444  -0.000027
    26  H   -0.027057   0.517480   0.001155  -0.000013  -0.001651   0.000550
    27  H   -0.000436   0.001155   0.373757   0.000001  -0.000023   0.000002
    28  H    0.000042  -0.000013   0.000001   0.552046   0.005718  -0.008539
    29  H    0.000444  -0.001651  -0.000023   0.005718   0.520785  -0.026529
    30  H   -0.000027   0.000550   0.000002  -0.008539  -0.026529   0.525385
    31  H   -0.000087  -0.000584  -0.000002  -0.001219  -0.028102  -0.022084
    32  H    0.000000  -0.000003  -0.000004   0.000000   0.000015  -0.000008
    33  H    0.000000   0.000000   0.000000   0.000000   0.000000   0.000000
    34  H    0.000000   0.000000   0.000002   0.000000   0.000000   0.000000
             31         32         33         34
     1  O    0.000014  -0.000531  -0.000749   0.002685
     2  C   -0.000738   0.018625   0.031378  -0.236388
     3  C    0.000369  -0.005973  -0.009986  -0.000336
     4  C    0.000013  -0.003362  -0.000973   0.007371
     5  N   -0.000144  -0.000340   0.000013   0.000192
     6  C   -0.026381   0.001311   0.000069   0.000439
     7  C    0.020824  -0.000830   0.000000   0.000017
     8  O    0.000205  -0.000001   0.000000   0.000000
     9  C   -0.009465   0.000140   0.000003  -0.000023
    10  C    0.000342   0.000042  -0.000009  -0.000020
    11  O   -0.000142   0.000016   0.000001   0.000004
    12  O   -0.000012   0.000001   0.000000   0.000006
    13  C   -0.027445   0.004596  -0.000025  -0.000130
    14  C    0.405595  -0.001070  -0.000001   0.000000
    15  O    0.008276   0.006254  -0.000008   0.000010
    16  C    0.001492   0.394603   0.020450  -0.030987
    17  C    0.000167  -0.088116  -0.071438   0.062446
    18  Cl   0.000000  -0.009131  -0.004536  -0.000985
    19  C    0.000014   0.014254   0.418667  -0.100727
    20  C   -0.000126   0.002894  -0.046265   0.647640
    21  H   -0.000015   0.000109   0.000026   0.000918
    22  H   -0.000262  -0.000019   0.000000   0.000000
    23  H   -0.000166   0.000000   0.000000   0.000000
    24  H   -0.000031   0.000000   0.000000   0.000000
    25  H   -0.000087   0.000000   0.000000   0.000000
    26  H   -0.000584  -0.000003   0.000000   0.000000
    27  H   -0.000002  -0.000004   0.000000   0.000002
    28  H   -0.001219   0.000000   0.000000   0.000000
    29  H   -0.028102   0.000015   0.000000   0.000000
    30  H   -0.022084  -0.000008   0.000000   0.000000
    31  H    0.520491  -0.000009   0.000000   0.000000
    32  H   -0.000009   0.498417  -0.000109   0.000047
    33  H    0.000000  -0.000109   0.518211  -0.004869
    34  H    0.000000   0.000047  -0.004869   0.518639
 Mulliken atomic charges:
              1
     1  O   -0.626508
     2  C    0.040778
     3  C    0.136014
     4  C    0.635353
     5  N   -0.525211
     6  C    0.565368
     7  C   -0.065919
     8  O   -0.480222
     9  C   -0.260793
    10  C    0.483335
    11  O   -0.396043
    12  O   -0.537649
    13  C   -0.130213
    14  C   -0.443662
    15  O   -0.466486
    16  C   -0.835281
    17  C    1.055801
    18  Cl  -0.087602
    19  C   -0.635251
    20  C   -0.207419
    21  H    0.465882
    22  H    0.118055
    23  H    0.141021
    24  H    0.302243
    25  H    0.179381
    26  H    0.167282
    27  H    0.352753
    28  H    0.131142
    29  H    0.158274
    30  H    0.153985
    31  H    0.159212
    32  H    0.168182
    33  H    0.150150
    34  H    0.134049
 Sum of Mulliken atomic charges =   0.00000
 Mulliken charges with hydrogens summed into heavy atoms:
              1
     1  O   -0.160626
     2  C    0.040778
     3  C    0.136014
     4  C    0.635353
     5  N   -0.525211
     6  C    0.683422
     7  C    0.075102
     8  O   -0.177979
     9  C    0.085870
    10  C    0.483335
    11  O   -0.043290
    12  O   -0.537649
    13  C    0.000929
    14  C    0.027809
    15  O   -0.466486
    16  C   -0.667100
    17  C    1.055801
    18  Cl  -0.087602
    19  C   -0.485101
    20  C   -0.073370
 Sum of Mulliken charges with hydrogens summed into heavy atoms =   0.00000
 Electronic spatial extent (au):  <R**2>=           6656.6150
 Charge=              0.0000 electrons
 Dipole moment (field-independent basis, Debye):
    X=             -1.0300    Y=              3.7182    Z=              2.6756  Tot=              4.6952
 Quadrupole moment (field-independent basis, Debye-Ang):
   XX=           -137.4563   YY=           -119.0107   ZZ=           -124.7519
   XY=            -20.6752   XZ=             -9.7088   YZ=             -4.3878
 Traceless Quadrupole moment (field-independent basis, Debye-Ang):
   XX=            -10.3833   YY=              8.0623   ZZ=              2.3210
   XY=            -20.6752   XZ=             -9.7088   YZ=             -4.3878
 Octapole moment (field-independent basis, Debye-Ang**2):
  XXX=             -9.2129  YYY=             27.4506  ZZZ=              5.5631  XYY=              2.1365
  XXY=              0.6288  XXZ=             41.8179  XZZ=            -13.0259  YZZ=             -5.8911
  YYZ=             13.3745  XYZ=              0.0742
 Hexadecapole moment (field-independent basis, Debye-Ang**3):
 XXXX=          -6782.4550 YYYY=          -1735.7880 ZZZZ=           -656.6794 XXXY=           -213.7824
 XXXZ=           -218.1922 YYYX=            -97.7345 YYYZ=            -51.1127 ZZZX=              0.0566
 ZZZY=            -26.4282 XXYY=          -1288.0930 XXZZ=          -1217.0774 YYZZ=           -372.0130
 XXYZ=             12.9932 YYXZ=              6.5456 ZZXY=             32.8134
 N-N= 1.753622741833D+03 E-N=-6.786921514402D+03  KE= 1.390629936359D+03
 1\1\GINC-PROD2-0089\SP\RB3LYP\6-311+G(2d,p)\C13H14Cl1N1O5\YUHENG\26-Ma
 r-2019\0\\# b3lyp/6-311+G(2d,p) nmr guess=read geom=check integral(ult
 rafinegrid) scrf=(iefpcm,read,solvent=methanol)\\Candidate Structure: 
 1b, Conformer: 9, NMR calculation with methanol solvation\\0,1\O,0,0.3
 59455322,-2.2605190863,-0.7781664333\C,0,1.4149408328,-1.4829368556,-0
 .5086069491\C,0,1.3296136251,-0.084741816,-0.3790775498\C,0,0.04318484
 59,0.5839231498,-0.5307255068\N,0,-1.0684703984,0.0004779632,-0.803969
 7228\C,0,-2.0763507945,1.0611028273,-0.9302724734\C,0,-3.4596143819,0.
 6640488004,-0.3848054667\O,0,-4.174963403,-0.0920860871,-1.3481099134\
 C,0,-3.4605488091,-0.0409684205,0.9824591719\C,0,-2.6715331279,-1.3238
 790094,1.0077448012\O,0,-1.7833335717,-1.3731877641,1.998795222\O,0,-2
 .8738081856,-2.2683479511,0.2740014031\C,0,-1.3629086876,2.3065256542,
 -0.3337186851\C,0,-1.6748912125,2.7010399917,1.0961026804\O,0,0.043176
 274,1.9211592055,-0.3841444704\C,0,2.4750589996,0.6658262014,-0.098730
 0826\C,0,3.6867905421,0.0253437766,0.0536479997\Cl,0,5.1218924048,0.96
 39696546,0.4039193889\C,0,3.7860718896,-1.3602698161,-0.0668823176\C,0
 ,2.6553183447,-2.1052582781,-0.3472447166\H,0,-0.4320126499,-1.6799264
 744,-0.9118669383\H,0,-2.2446948288,1.2328918876,-2.0016784027\H,0,-4.
 0394141238,1.5874592457,-0.2654132788\H,0,-3.7623008522,-0.9696720289,
 -1.4429692554\H,0,-4.5001189677,-0.3075427996,1.2028017598\H,0,-3.1057
 38537,0.6167836961,1.7754265041\H,0,-1.3325005126,-2.2481144657,1.9789
 965707\H,0,-1.4735066432,3.1633435978,-1.0015193746\H,0,-1.3908681961,
 1.9061327256,1.7907157796\H,0,-1.1021094922,3.5956178314,1.3522212766\
 H,0,-2.7396670154,2.92727102,1.2160322273\H,0,2.3971357072,1.745391268
 8,0.0000458239\H,0,4.7484380261,-1.8496406017,0.0575210665\H,0,2.70947
 61093,-3.1855085429,-0.4475072072\\Version=EM64L-G09RevB.01\State=1-A\
 HF=-1395.2507442\RMSD=4.906e-09\Dipole=-0.4052503,1.462867,1.0526685\Q
 uadrupole=-7.7197453,5.9941092,1.7256361,-15.3715195,-7.2182346,-3.262
 2497\PG=C01 [X(C13H14Cl1N1O5)]\\@


 AN AIRPLANE IS A COLLECTION OF SPARE PARTS
 FLYING IN CLOSE FORMATION.
 Job cpu time:  0 days  2 hours 47 minutes  9.0 seconds.
 File lengths (MBytes):  RWF=    330 Int=      0 D2E=      0 Chk=     29 Scr=      1
 Normal termination of Gaussian 09 at Tue Mar 26 03:07:57 2019.
