 Entering Gaussian System, Link 0=g09
 Initial command:
 /home/yuheng/proj/yuheng/g09/l1.exe /home/yuheng/proj/yuheng/g09_scratch/Gau-170476.inp -scrdir=/home/yuheng/proj/yuheng/g09_scratch/
 Entering Link 1 = /home/yuheng/proj/yuheng/g09/l1.exe PID=    170477.
  
 Copyright (c) 1988,1990,1992,1993,1995,1998,2003,2009,2010,
            Gaussian, Inc.  All Rights Reserved.
  
 This is part of the Gaussian(R) 09 program.  It is based on
 the Gaussian(R) 03 system (copyright 2003, Gaussian, Inc.),
 the Gaussian(R) 98 system (copyright 1998, Gaussian, Inc.),
 the Gaussian(R) 94 system (copyright 1995, Gaussian, Inc.),
 the Gaussian 92(TM) system (copyright 1992, Gaussian, Inc.),
 the Gaussian 90(TM) system (copyright 1990, Gaussian, Inc.),
 the Gaussian 88(TM) system (copyright 1988, Gaussian, Inc.),
 the Gaussian 86(TM) system (copyright 1986, Carnegie Mellon
 University), and the Gaussian 82(TM) system (copyright 1983,
 Carnegie Mellon University). Gaussian is a federally registered
 trademark of Gaussian, Inc.
  
 This software contains proprietary and confidential information,
 including trade secrets, belonging to Gaussian, Inc.
  
 This software is provided under written license and may be
 used, copied, transmitted, or stored only in accord with that
 written license.
  
 The following legend is applicable only to US Government
 contracts under FAR:
  
                    RESTRICTED RIGHTS LEGEND
  
 Use, reproduction and disclosure by the US Government is
 subject to restrictions as set forth in subparagraphs (a)
 and (c) of the Commercial Computer Software - Restricted
 Rights clause in FAR 52.227-19.
  
 Gaussian, Inc.
 340 Quinnipiac St., Bldg. 40, Wallingford CT 06492
  
  
 ---------------------------------------------------------------
 Warning -- This program may not be used in any manner that
 competes with the business of Gaussian, Inc. or will provide
 assistance to any competitor of Gaussian, Inc.  The licensee
 of this program is prohibited from giving any competitor of
 Gaussian, Inc. access to this program.  By using this program,
 the user acknowledges that Gaussian, Inc. is engaged in the
 business of creating and licensing software in the field of
 computational chemistry and represents and warrants to the
 licensee that it is not a competitor of Gaussian, Inc. and that
 it will not use this program in any manner prohibited above.
 ---------------------------------------------------------------
  

 Cite this work as:
 Gaussian 09, Revision B.01,
 M. J. Frisch, G. W. Trucks, H. B. Schlegel, G. E. Scuseria, 
 M. A. Robb, J. R. Cheeseman, G. Scalmani, V. Barone, B. Mennucci, 
 G. A. Petersson, H. Nakatsuji, M. Caricato, X. Li, H. P. Hratchian, 
 A. F. Izmaylov, J. Bloino, G. Zheng, J. L. Sonnenberg, M. Hada, 
 M. Ehara, K. Toyota, R. Fukuda, J. Hasegawa, M. Ishida, T. Nakajima, 
 Y. Honda, O. Kitao, H. Nakai, T. Vreven, J. A. Montgomery, Jr., 
 J. E. Peralta, F. Ogliaro, M. Bearpark, J. J. Heyd, E. Brothers, 
 K. N. Kudin, V. N. Staroverov, T. Keith, R. Kobayashi, J. Normand, 
 K. Raghavachari, A. Rendell, J. C. Burant, S. S. Iyengar, J. Tomasi, 
 M. Cossi, N. Rega, J. M. Millam, M. Klene, J. E. Knox, J. B. Cross, 
 V. Bakken, C. Adamo, J. Jaramillo, R. Gomperts, R. E. Stratmann, 
 O. Yazyev, A. J. Austin, R. Cammi, C. Pomelli, J. W. Ochterski, 
 R. L. Martin, K. Morokuma, V. G. Zakrzewski, G. A. Voth, 
 P. Salvador, J. J. Dannenberg, S. Dapprich, A. D. Daniels, 
 O. Farkas, J. B. Foresman, J. V. Ortiz, J. Cioslowski, 
 and D. J. Fox, Gaussian, Inc., Wallingford CT, 2010.
 
 ******************************************
 Gaussian 09:  EM64L-G09RevB.01 12-Aug-2010
                26-Mar-2019 
 ******************************************
 %mem=16gb
 %nprocshared=20
 Will use up to   20 processors via shared memory.
 %chk=1b-conf-4.chk
 ----------------------------------------------------------------------
 # b3lyp/6-311+G(2d,p) nmr guess=read geom=check integral(ultrafinegrid
 ) scrf=(iefpcm,read,solvent=methanol)
 ----------------------------------------------------------------------
 1/29=2,38=1,40=2/1;
 2/12=2,40=1/2;
 3/5=4,6=6,7=112,11=2,14=-4,16=1,25=1,30=1,70=2203,72=3,74=-5,75=-5,116=-2/1,2,8,3;
 4/5=1/1;
 5/5=2,38=6,53=3/2;
 8/6=1,10=90,11=11/1;
 10/13=100,45=16/2;
 6/7=2,8=2,9=2,10=2,28=1/1;
 99/9=1/99;
 ----------------------------------------------------------------------
 Candidate Structure: 1b, Conformer: 4, NMR calculation with methanol s
 olvation
 ----------------------------------------------------------------------
 Redundant internal coordinates taken from checkpoint file:
 1b-conf-4.chk
 Charge =  0 Multiplicity = 1
 O,0,0.9952700463,-2.2223558351,-1.5862502403
 C,0,1.8551107816,-1.4477673345,-0.9063981849
 C,0,1.5519639594,-0.1228310296,-0.5295687546
 C,0,0.247533885,0.4381224609,-0.8741150899
 N,0,-0.6525855311,-0.1771266994,-1.5529348058
 C,0,-1.8544116254,0.6722108619,-1.5316814661
 C,0,-2.9231447747,0.0364702992,-0.6278783618
 O,0,-3.5242428379,-1.0689158562,-1.2800771332
 C,0,-2.3828519141,-0.3924015327,0.7353388081
 C,0,-3.4975751102,-0.6857479406,1.7104014624
 O,0,-3.1070036331,-1.5209120246,2.6790708859
 O,0,-4.6100203347,-0.2080968038,1.6610825782
 C,0,-1.2926869924,2.0412607671,-1.0908218331
 C,0,-2.128227317,2.9236458448,-0.1899885977
 O,0,-0.0509122997,1.6723467264,-0.4226796072
 C,0,2.4886038686,0.6412116733,0.1803239098
 C,0,3.7106935547,0.0846564339,0.5081835654
 Cl,0,4.8842313117,1.0328348058,1.3931303595
 C,0,4.0244522216,-1.2275224951,0.1430734674
 C,0,3.101209588,-1.9858230853,-0.5592641093
 H,0,0.1662971013,-1.7048286196,-1.7588909735
 H,0,-2.2864585239,0.7415994194,-2.5345410525
 H,0,-3.7332844098,0.7595159376,-0.4861416534
 H,0,-2.8313154035,-1.7142894705,-1.5067810574
 H,0,-1.7546774109,0.3828489378,1.1940934184
 H,0,-1.750968257,-1.2806757761,0.6345104497
 H,0,-3.8468720826,-1.6474070462,3.3099334648
 H,0,-0.9951031014,2.5993349338,-1.9870207881
 H,0,-1.5713491857,3.8291852904,0.0604206959
 H,0,-3.040445825,3.21984957,-0.7156282239
 H,0,-2.4093912606,2.4225702788,0.7391889667
 H,0,2.2454540116,1.6606496234,0.4642987925
 H,0,4.9893866298,-1.6488605537,0.4101856717
 H,0,3.3261458591,-3.007236521,-0.8511009439
 Recover connectivity data from disk.
                          Input orientation:                          
 ---------------------------------------------------------------------
 Center     Atomic      Atomic             Coordinates (Angstroms)
 Number     Number       Type             X           Y           Z
 ---------------------------------------------------------------------
      1          8           0        0.995270   -2.222356   -1.586250
      2          6           0        1.855111   -1.447767   -0.906398
      3          6           0        1.551964   -0.122831   -0.529569
      4          6           0        0.247534    0.438122   -0.874115
      5          7           0       -0.652586   -0.177127   -1.552935
      6          6           0       -1.854412    0.672211   -1.531681
      7          6           0       -2.923145    0.036470   -0.627878
      8          8           0       -3.524243   -1.068916   -1.280077
      9          6           0       -2.382852   -0.392402    0.735339
     10          6           0       -3.497575   -0.685748    1.710401
     11          8           0       -3.107004   -1.520912    2.679071
     12          8           0       -4.610020   -0.208097    1.661083
     13          6           0       -1.292687    2.041261   -1.090822
     14          6           0       -2.128227    2.923646   -0.189989
     15          8           0       -0.050912    1.672347   -0.422680
     16          6           0        2.488604    0.641212    0.180324
     17          6           0        3.710694    0.084656    0.508184
     18         17           0        4.884231    1.032835    1.393130
     19          6           0        4.024452   -1.227522    0.143073
     20          6           0        3.101210   -1.985823   -0.559264
     21          1           0        0.166297   -1.704829   -1.758891
     22          1           0       -2.286459    0.741599   -2.534541
     23          1           0       -3.733284    0.759516   -0.486142
     24          1           0       -2.831315   -1.714289   -1.506781
     25          1           0       -1.754677    0.382849    1.194093
     26          1           0       -1.750968   -1.280676    0.634510
     27          1           0       -3.846872   -1.647407    3.309933
     28          1           0       -0.995103    2.599335   -1.987021
     29          1           0       -1.571349    3.829185    0.060421
     30          1           0       -3.040446    3.219850   -0.715628
     31          1           0       -2.409391    2.422570    0.739189
     32          1           0        2.245454    1.660650    0.464299
     33          1           0        4.989387   -1.648861    0.410186
     34          1           0        3.326146   -3.007237   -0.851101
 ---------------------------------------------------------------------
                    Distance matrix (angstroms):
                    1          2          3          4          5
     1  O    0.000000
     2  C    1.342204   0.000000
     3  C    2.415469   1.410445   0.000000
     4  C    2.853838   2.478291   1.461136   0.000000
     5  N    2.626690   2.884628   2.431104   1.284345   0.000000
     6  C    4.062288   4.318083   3.638642   2.214806   1.471806
     7  C    4.623283   5.011214   4.479022   3.205489   2.461055
     8  O    4.674416   5.405609   5.217875   4.081944   3.019297
     9  C    4.488899   4.665772   4.141912   3.193594   2.876867
    10  C    5.780548   6.006626   5.552674   4.687073   4.359131
    11  O    5.959332   6.122378   5.827176   5.264586   5.073441
    12  O    6.783929   7.065880   6.540357   5.517305   5.098250
    13  C    4.864013   4.702761   3.618057   2.233673   2.354681
    14  C    6.179572   5.957305   4.789587   3.505723   3.694581
    15  O    4.197273   3.688092   2.409004   1.347655   2.249453
    16  C    3.681148   2.438465   1.401786   2.485052   3.679801
    17  C    4.133096   2.791514   2.404183   3.745552   4.832695
    18  Cl   5.881921   4.540572   4.017006   5.195483   6.387460
    19  C    3.627147   2.419905   2.790339   4.251371   5.084728
    20  C    2.354916   1.400988   2.423176   3.757407   4.283660
    21  H    0.992389   1.909166   2.435985   2.319842   1.745526
    22  H    4.522613   4.959513   4.415953   3.044705   2.115928
    23  H    5.697458   6.023195   5.358570   4.012572   3.392057
    24  H    3.860985   4.732239   4.764538   3.809522   2.666808
    25  H    4.698895   4.560021   3.763057   2.879130   3.012365
    26  H    3.655183   3.925064   3.688502   3.037142   2.684992
    27  H    6.910103   7.094358   6.798054   6.214488   6.001056
    28  H    5.231721   5.066606   4.002737   2.730118   2.830987
    29  H    6.776445   6.365658   5.071647   3.959924   4.415606
    30  H    6.831002   6.766795   5.683165   4.309749   4.235848
    31  H    6.210855   5.989445   4.876592   3.687822   3.885695
    32  H    4.565681   3.419566   2.156271   2.697704   3.980614
    33  H    4.501957   3.405513   3.876568   5.337611   6.152373
    34  H    2.566995   2.144515   3.401602   4.620485   4.932788
                    6          7          8          9         10
     6  C    0.000000
     7  C    1.537276   0.000000
     8  O    2.425523   1.417237   0.000000
     9  C    2.559693   1.527812   2.412954   0.000000
    10  C    3.880095   2.513786   3.015044   1.509771   0.000000
    11  O    4.910113   3.659939   4.006650   2.361361   1.337298
    12  O    4.308371   2.853893   3.251206   2.418935   1.211659
    13  C    1.544082   2.625242   3.832605   3.232033   4.488314
    14  C    2.635161   3.026454   4.367803   3.452135   4.302827
    15  O    2.341531   3.311785   4.507070   3.322971   4.689363
    16  C    4.668373   5.505082   6.419629   5.010736   6.319517
    17  C    5.956229   6.730585   7.541413   6.116411   7.348332
    18  Cl   7.354854   8.126029   9.070051   7.434681   8.562060
    19  C    6.401159   7.103601   7.683314   6.488586   7.702657
    20  C    5.706919   6.355094   6.727326   5.855760   7.098277
    21  H    3.128131   3.722360   3.775412   3.800238   5.147667
    22  H    1.094169   2.130244   2.526609   3.462277   4.639360
    23  H    2.151962   1.095085   2.004294   2.154668   2.639914
    24  H    2.578826   1.961138   0.973679   2.641138   3.442683
    25  H    2.742905   2.192003   3.370534   1.098213   2.108593
    26  H    2.918365   2.168524   2.618204   1.094749   2.135911
    27  H    5.726409   4.381219   4.637557   3.216665   1.898763
    28  H    2.158600   3.483230   4.511361   4.276398   5.543020
    29  H    3.547027   4.084825   5.440783   4.351534   5.178552
    30  H    2.926275   3.186748   4.352720   3.947923   4.620420
    31  H    2.920379   2.797551   4.184591   2.815100   3.433517
    32  H    4.665817   5.526773   6.616856   5.070473   6.327775
    33  H    7.483034   8.156352   8.699150   7.485607   8.639830
    34  H    6.390595   6.954683   7.132246   6.476636   7.649429
                   11         12         13         14         15
    11  O    0.000000
    12  O    2.240277   0.000000
    13  C    5.494808   4.861819   0.000000
    14  C    5.379926   4.403813   1.512690   0.000000
    15  O    5.399764   5.353840   1.457572   2.436213   0.000000
    16  C    6.498410   7.300989   4.227778   5.163503   2.806420
    17  C    7.332912   8.405305   5.605260   6.529954   4.187714
    18  Cl   8.487350   9.578754   6.733592   7.433439   5.297337
    19  C    7.574630   8.825967   6.362343   7.429576   5.033678
    20  C    7.017469   8.219082   5.983835   7.182358   4.830811
    21  H    5.517593   6.062148   4.075308   5.398988   3.638400
    22  H    5.742299   4.889184   2.181978   3.206757   3.213085
    23  H    3.951095   2.513068   2.822237   2.710604   3.794358
    24  H    4.199376   3.932908   4.079774   4.872240   4.513892
    25  H    2.767354   2.953012   2.860874   2.917340   2.679473
    26  H    2.465111   3.221561   3.771214   4.300982   3.567658
    27  H    0.980507   2.317913   6.284646   6.008138   6.273952
    28  H    6.573353   5.853030   1.096894   2.149063   2.048894
    29  H    6.151350   5.300499   2.144688   1.092163   2.682735
    30  H    5.831229   4.456808   2.141145   1.093698   3.379038
    31  H    4.449815   3.551488   2.177468   1.092475   2.734081
    32  H    6.608809   7.205694   3.883517   4.599167   2.461740
    33  H    8.409265   9.787194   7.438714   8.481064   6.093332
    34  H    7.487101   8.782311   6.846781   8.084715   5.786758
                   16         17         18         19         20
    16  C    0.000000
    17  C    1.382298   0.000000
    18  Cl   2.713540   1.749104   0.000000
    19  C    2.419170   1.397699   2.722329   0.000000
    20  C    2.797068   2.407862   4.012892   1.385884   0.000000
    21  H    3.828520   4.572158   6.299916   4.327892   3.183045
    22  H    5.493796   6.756891   8.181089   7.132647   6.353544
    23  H    6.258599   7.540353   8.824281   8.032852   7.365632
    24  H    6.057743   7.077724   8.688259   7.068275   6.013848
    25  H    4.370345   5.516310   6.673620   6.090671   5.680186
    26  H    4.676955   5.631149   7.067794   5.796535   5.046381
    27  H    7.427684   8.244189   9.332202   8.494884   7.959966
    28  H    4.546190   5.890176   6.960310   6.661687   6.312047
    29  H    5.163407   6.490144   7.160322   7.542554   7.485395
    30  H    6.166238   7.543543   8.487073   8.392215   8.052541
    31  H    5.241748   6.555505   7.453585   7.421110   7.175419
    32  H    1.085826   2.152349   2.867059   3.407280   3.882881
    33  H    3.398703   2.156326   2.858099   1.086266   2.149090
    34  H    3.882845   3.399314   4.877128   2.154854   1.085841
                   21         22         23         24         25
    21  H    0.000000
    22  H    3.550022   0.000000
    23  H    4.785355   2.507901   0.000000
    24  H    3.008210   2.717453   2.823998   0.000000
    25  H    4.094955   3.783412   2.622967   3.584949   0.000000
    26  H    3.095833   3.797267   3.057421   2.437273   1.755124
    27  H    6.465432   6.503855   4.496261   4.923065   3.602221
    28  H    4.463935   2.327780   3.624253   4.712713   3.950854
    29  H    6.079031   4.096144   3.794149   5.896927   3.632638
    30  H    5.968589   3.165227   2.566307   5.001538   3.653602
    31  H    5.469003   3.682130   2.453544   4.726099   2.189989
    32  H    4.537831   5.511436   6.120514   6.406946   4.262209
    33  H    5.288688   8.205098   9.093331   8.052479   7.086943
    34  H    3.536240   6.956225   8.009817   6.325817   6.441294
                   26         27         28         29         30
    26  H    0.000000
    27  H    3.418361   0.000000
    28  H    4.743231   7.363771   0.000000
    29  H    5.145145   6.762426   2.456951   0.000000
    30  H    4.872408   6.367547   2.486947   1.769686   0.000000
    31  H    3.762780   5.023922   3.076309   1.772458   1.774930
    32  H    4.965054   7.493818   4.170289   4.408361   5.635962
    33  H    6.754130   9.299893   7.720614   8.554214   9.457801
    34  H    5.564633   8.403305   7.169181   8.458900   8.906652
                   31         32         33         34
    31  H    0.000000
    32  H    4.724793   0.000000
    33  H    8.451432   4.299413   0.000000
    34  H    8.056563   4.968635   2.490462   0.000000
 Stoichiometry    C13H14ClNO5
 Framework group  C1[X(C13H14ClNO5)]
 Deg. of freedom    96
 Full point group                 C1      NOp   1
 Largest Abelian subgroup         C1      NOp   1
 Largest concise Abelian subgroup C1      NOp   1
                         Standard orientation:                         
 ---------------------------------------------------------------------
 Center     Atomic      Atomic             Coordinates (Angstroms)
 Number     Number       Type             X           Y           Z
 ---------------------------------------------------------------------
      1          8           0        0.995270   -2.222356   -1.586250
      2          6           0        1.855111   -1.447767   -0.906398
      3          6           0        1.551964   -0.122831   -0.529569
      4          6           0        0.247534    0.438122   -0.874115
      5          7           0       -0.652586   -0.177127   -1.552935
      6          6           0       -1.854412    0.672211   -1.531681
      7          6           0       -2.923145    0.036470   -0.627878
      8          8           0       -3.524243   -1.068916   -1.280077
      9          6           0       -2.382852   -0.392402    0.735339
     10          6           0       -3.497575   -0.685748    1.710401
     11          8           0       -3.107004   -1.520912    2.679071
     12          8           0       -4.610020   -0.208097    1.661083
     13          6           0       -1.292687    2.041261   -1.090822
     14          6           0       -2.128227    2.923646   -0.189989
     15          8           0       -0.050912    1.672347   -0.422680
     16          6           0        2.488604    0.641212    0.180324
     17          6           0        3.710694    0.084656    0.508184
     18         17           0        4.884231    1.032835    1.393130
     19          6           0        4.024452   -1.227522    0.143073
     20          6           0        3.101210   -1.985823   -0.559264
     21          1           0        0.166297   -1.704829   -1.758891
     22          1           0       -2.286459    0.741599   -2.534541
     23          1           0       -3.733284    0.759516   -0.486142
     24          1           0       -2.831315   -1.714289   -1.506781
     25          1           0       -1.754677    0.382849    1.194093
     26          1           0       -1.750968   -1.280676    0.634510
     27          1           0       -3.846872   -1.647407    3.309933
     28          1           0       -0.995103    2.599335   -1.987021
     29          1           0       -1.571349    3.829185    0.060421
     30          1           0       -3.040446    3.219850   -0.715628
     31          1           0       -2.409391    2.422570    0.739189
     32          1           0        2.245454    1.660650    0.464299
     33          1           0        4.989387   -1.648861    0.410186
     34          1           0        3.326146   -3.007237   -0.851101
 ---------------------------------------------------------------------
 Rotational constants (GHZ):      0.4932679      0.1584343      0.1552321
 Standard basis: 6-311+G(2d,p) (5D, 7F)
 There are   632 symmetry adapted basis functions of A   symmetry.
 Integral buffers will be    131072 words long.
 Raffenetti 2 integral format.
 Two-electron integral symmetry is turned on.
   632 basis functions,   969 primitive gaussians,   672 cartesian basis functions
    78 alpha electrons       78 beta electrons
       nuclear repulsion energy      1706.6679118740 Hartrees.
 NAtoms=   34 NActive=   34 NUniq=   34 SFac= 1.00D+00 NAtFMM=   50 NAOKFM=F Big=F
 Using the following non-standard input for PCM:
 radii=bondi
 --- end of non-standard input.
 ------------------------------------------------------------------------------
 Polarizable Continuum Model (PCM)
 =================================
 Model                : PCM.
 Atomic radii         : Bondi.
 Polarization charges : Total charges.
 Charge compensation  : None.
 Solution method      : Matrix inversion.
 Cavity type          : Scaled VdW (van der Waals Surface) (Alpha=1.100).
 Cavity algorithm     : GePol (No added spheres)
                        Default sphere list used, NSphG=   34.
                        Lebedev-Laikov grids with approx.  5.0 points / Ang**2.
                        Smoothing algorithm: Karplus/York (Gamma=1.0000).
                        Polarization charges: spherical gaussians, with
                                              point-specific exponents (IZeta= 3).
                        Self-potential: point-specific (ISelfS= 7).
                        Self-field    : sphere-specific E.n sum rule (ISelfD= 2).
 Solvent              : Methanol, Eps=  32.613000 Eps(inf)=   1.765709
 ------------------------------------------------------------------------------
 One-electron integrals computed using PRISM.
 NBasis=   632 RedAO= T  NBF=   632
 NBsUse=   630 1.00D-06 NBFU=   630
 Initial guess read from the checkpoint file:  1b-conf-4.chk
 B after Tr=     0.000000    0.000000    0.000000
         Rot=    1.000000    0.000000    0.000000    0.000000 Ang=   0.00 deg.
 Initial guess orbital symmetries:
       Occupied  (A) (A) (A) (A) (A) (A) (A) (A) (A) (A) (A) (A)
                 (A) (A) (A) (A) (A) (A) (A) (A) (A) (A) (A) (A)
                 (A) (A) (A) (A) (A) (A) (A) (A) (A) (A) (A) (A)
                 (A) (A) (A) (A) (A) (A) (A) (A) (A) (A) (A) (A)
                 (A) (A) (A) (A) (A) (A) (A) (A) (A) (A) (A) (A)
                 (A) (A) (A) (A) (A) (A) (A) (A) (A) (A) (A) (A)
                 (A) (A) (A) (A) (A) (A)
       Virtual   (A) (A) (A) (A) (A) (A) (A) (A) (A) (A) (A) (A)
                 (A) (A) (A) (A) (A) (A) (A) (A) (A) (A) (A) (A)
                 (A) (A) (A) (A) (A) (A) (A) (A) (A) (A) (A) (A)
                 (A) (A) (A) (A) (A) (A) (A) (A) (A) (A) (A) (A)
                 (A) (A) (A) (A) (A) (A) (A) (A) (A) (A) (A) (A)
                 (A) (A) (A) (A) (A) (A) (A) (A) (A) (A) (A) (A)
                 (A) (A) (A) (A) (A) (A) (A) (A) (A) (A) (A) (A)
                 (A) (A) (A) (A) (A) (A) (A) (A) (A) (A) (A) (A)
                 (A) (A) (A) (A) (A) (A) (A) (A) (A) (A) (A) (A)
                 (A) (A) (A) (A) (A) (A) (A) (A) (A) (A) (A) (A)
                 (A) (A) (A) (A) (A) (A) (A) (A) (A) (A) (A) (A)
                 (A) (A) (A) (A) (A) (A) (A) (A) (A) (A) (A) (A)
                 (A) (A) (A) (A) (A) (A) (A) (A) (A) (A) (A) (A)
                 (A) (A) (A) (A) (A) (A) (A) (A) (A) (A) (A) (A)
                 (A) (A) (A) (A) (A) (A) (A) (A) (A) (A) (A) (A)
                 (A) (A) (A) (A) (A) (A) (A) (A) (A) (A) (A) (A)
                 (A) (A) (A) (A) (A) (A) (A) (A) (A) (A) (A) (A)
                 (A) (A) (A) (A) (A) (A) (A) (A) (A) (A) (A) (A)
                 (A) (A) (A) (A) (A) (A) (A) (A) (A) (A) (A) (A)
                 (A) (A) (A) (A) (A) (A) (A) (A) (A) (A) (A) (A)
                 (A) (A) (A) (A) (A) (A) (A) (A) (A) (A) (A) (A)
                 (A) (A) (A) (A) (A) (A) (A) (A) (A) (A) (A) (A)
                 (A) (A) (A) (A) (A) (A) (A) (A) (A) (A) (A) (A)
                 (A) (A) (A) (A) (A) (A) (A) (A) (A) (A) (A) (A)
                 (A) (A) (A) (A) (A) (A) (A) (A) (A) (A) (A) (A)
                 (A) (A) (A) (A) (A) (A) (A) (A) (A) (A) (A) (A)
                 (A) (A) (A) (A) (A) (A) (A) (A) (A) (A) (A) (A)
                 (A) (A) (A) (A) (A) (A) (A) (A) (A) (A) (A) (A)
                 (A) (A) (A) (A) (A) (A) (A) (A) (A) (A) (A) (A)
                 (A) (A) (A) (A) (A) (A) (A) (A) (A) (A) (A) (A)
                 (A) (A) (A) (A) (A) (A) (A) (A) (A) (A) (A) (A)
                 (A) (A) (A) (A) (A) (A) (A) (A) (A) (A) (A) (A)
                 (A) (A) (A) (A) (A) (A) (A) (A) (A) (A) (A) (A)
                 (A) (A) (A) (A) (A) (A) (A) (A) (A) (A) (A) (A)
                 (A) (A) (A) (A) (A) (A) (A) (A) (A) (A) (A) (A)
                 (A) (A) (A) (A) (A) (A) (A) (A) (A) (A) (A) (A)
                 (A) (A) (A) (A) (A) (A) (A) (A) (A) (A) (A) (A)
                 (A) (A) (A) (A) (A) (A) (A) (A) (A) (A) (A) (A)
                 (A) (A) (A) (A) (A) (A) (A) (A) (A) (A) (A) (A)
                 (A) (A) (A) (A) (A) (A) (A) (A) (A) (A) (A) (A)
                 (A) (A) (A) (A) (A) (A) (A) (A) (A) (A) (A) (A)
                 (A) (A) (A) (A) (A) (A) (A) (A) (A) (A) (A) (A)
                 (A) (A) (A) (A) (A) (A) (A) (A) (A) (A) (A) (A)
                 (A) (A) (A) (A) (A) (A) (A) (A) (A) (A) (A) (A)
                 (A) (A) (A) (A) (A) (A) (A) (A) (A) (A) (A) (A)
                 (A) (A) (A) (A) (A) (A) (A) (A) (A) (A) (A) (A)
 Requested convergence on RMS density matrix=1.00D-08 within 128 cycles.
 Requested convergence on MAX density matrix=1.00D-06.
 Requested convergence on             energy=1.00D-06.
 No special actions if energy rises.
 Error on total polarization charges =  0.05077
 SCF Done:  E(RB3LYP) =  -1395.25597326     A.U. after   13 cycles
             Convg  =    0.2033D-08             -V/T =  2.0034
 Range of M.O.s used for correlation:     1   630
 NBasis=   632 NAE=    78 NBE=    78 NFC=     0 NFV=     0
 NROrb=    630 NOA=    78 NOB=    78 NVA=   552 NVB=   552

 **** Warning!!: The largest alpha MO coefficient is  0.11515693D+03

 NEqPCM:  Using equilibrium solvation (IEInf=0, Eps=  32.6130, EpsInf=   1.7657)
          Differentiating once with respect to magnetic field using GIAOs.
          Electric field/nuclear overlap derivatives assumed to be zero.
 FoFCou: FMM=F IPFlag=           0 FMFlag=    10101102 FMFlg1=           0
         NFxFlg=    40000000 DoJE=F BraDBF=F KetDBF=T FulRan=T
         Omega=  0.000000  0.000000  1.000000  0.000000  0.000000 ICntrl=    6100 IOpCl=  0
         NMat0=    1 NMatS0=    1 NMatT0=    0 NMatD0=    1 NMtDS0=    0 NMtDT0=    0
         I1Cent=           7 NGrid=        2447.
 Symmetry not used in FoFCou.
          There are     3 degrees of freedom in the 1st order CPHF.  IDoFFX=0.
      3 vectors produced by pass  0 Test12= 1.44D-12 3.33D-08 XBig12= 4.12D+02 8.00D+00.
 AX will form     3 AO Fock derivatives at one time.
      3 vectors produced by pass  1 Test12= 1.44D-12 3.33D-08 XBig12= 7.33D-01 2.97D-01.
      3 vectors produced by pass  2 Test12= 1.44D-12 3.33D-08 XBig12= 3.12D-03 3.37D-02.
      3 vectors produced by pass  3 Test12= 1.44D-12 3.33D-08 XBig12= 1.14D-05 1.52D-03.
      3 vectors produced by pass  4 Test12= 1.44D-12 3.33D-08 XBig12= 3.20D-08 6.40D-05.
      3 vectors produced by pass  5 Test12= 1.44D-12 3.33D-08 XBig12= 1.41D-10 4.97D-06.
      3 vectors produced by pass  6 Test12= 1.44D-12 3.33D-08 XBig12= 7.45D-13 3.41D-07.
 Inverted reduced A of dimension    21 with in-core refinement.
 Calculating GIAO nuclear magnetic shielding tensors.
 SCF GIAO Magnetic shielding tensor (ppm):
  1  O    Isotropic =   185.3892   Anisotropy =   136.4298
   XX=   165.0165   YX=    54.9969   ZX=   -30.8439
   XY=    35.1883   YY=   152.3578   ZY=   -30.0154
   XZ=   -48.1055   YZ=   -37.8042   ZZ=   238.7932
   Eigenvalues:   113.1515   166.6736   276.3424
  2  C    Isotropic =    16.2212   Anisotropy =   151.7483
   XX=   -10.0799   YX=    -7.1658   ZX=   -60.1358
   XY=    -6.1089   YY=   -11.3434   ZY=   -51.9040
   XZ=   -59.3751   YZ=   -53.8407   ZZ=    70.0868
   Eigenvalues:   -64.5434    -4.1797   117.3867
  3  C    Isotropic =    66.3575   Anisotropy =   141.8296
   XX=    25.6135   YX=    33.9606   ZX=   -47.2203
   XY=    24.3911   YY=    47.2335   ZY=   -33.4893
   XZ=   -51.7801   YZ=   -29.5395   ZZ=   126.2255
   Eigenvalues:    -0.7794    38.9413   160.9106
  4  C    Isotropic =     8.1746   Anisotropy =    89.1367
   XX=     6.2258   YX=    53.1829   ZX=    -5.8063
   XY=    57.5500   YY=   -39.9180   ZY=   -23.1166
   XZ=    -0.1861   YZ=   -17.5973   ZZ=    58.2160
   Eigenvalues:   -78.5534    35.4781    67.5991
  5  N    Isotropic =    23.2273   Anisotropy =   250.9165
   XX=   -62.6750   YX=    92.4995   ZX=   -54.5791
   XY=    94.8645   YY=    -1.3374   ZY=   -57.4954
   XZ=   -82.9886   YZ=   -46.4196   ZZ=   133.6944
   Eigenvalues:  -133.3058    12.4828   190.5049
  6  C    Isotropic =   105.3615   Anisotropy =    25.6281
   XX=   120.6492   YX=     4.1706   ZX=     7.7385
   XY=   -10.7215   YY=   111.4675   ZY=     8.5149
   XZ=   -14.9265   YZ=     3.4338   ZZ=    83.9677
   Eigenvalues:    82.5097   111.1279   122.4469
  7  C    Isotropic =   109.2218   Anisotropy =    43.0516
   XX=    98.7991   YX=    17.0928   ZX=     5.5684
   XY=    19.7385   YY=   119.9798   ZY=    15.2412
   XZ=     7.0874   YZ=    11.0392   ZZ=   108.8865
   Eigenvalues:    88.0692   101.6734   137.9229
  8  O    Isotropic =   269.5877   Anisotropy =    43.5151
   XX=   254.0877   YX=    -7.5385   ZX=    15.3632
   XY=     4.7785   YY=   273.5221   ZY=    15.0526
   XZ=    21.4026   YZ=    17.4962   ZZ=   281.1533
   Eigenvalues:   242.1115   268.0538   298.5978
  9  C    Isotropic =   142.3707   Anisotropy =    34.3017
   XX=   130.9257   YX=     4.7296   ZX=    -9.0081
   XY=     3.4140   YY=   132.9412   ZY=    -9.9440
   XZ=     2.0870   YZ=    -3.7003   ZZ=   163.2451
   Eigenvalues:   127.6631   134.2104   165.2385
 10  C    Isotropic =     0.2997   Anisotropy =   106.4786
   XX=    29.4885   YX=    11.3024   ZX=     6.9873
   XY=    -1.0702   YY=    15.3944   ZY=    79.2135
   XZ=    26.1229   YZ=    71.7555   ZZ=   -43.9838
   Eigenvalues:   -96.3435    25.9572    71.2854
 11  O    Isotropic =   113.4782   Anisotropy =   191.3849
   XX=   -21.7798   YX=   -11.7144   ZX=   115.9518
   XY=    42.5251   YY=   172.7014   ZY=   -64.7502
   XZ=    18.7303   YZ=   -39.3553   ZZ=   189.5128
   Eigenvalues:   -45.5215   144.8879   241.0681
 12  O    Isotropic =   -55.7765   Anisotropy =   505.6250
   XX=  -167.1097   YX=   139.2552   ZX=    48.5007
   XY=   131.3914   YY=    69.0816   ZY=   227.6610
   XZ=     8.0422   YZ=   244.2921   ZZ=   -69.3014
   Eigenvalues:  -284.8285  -163.8079   281.3068
 13  C    Isotropic =    99.1513   Anisotropy =    72.6022
   XX=   126.2719   YX=   -11.5839   ZX=    32.8585
   XY=   -18.5485   YY=    86.0983   ZY=     7.1090
   XZ=    34.2300   YZ=    -3.7613   ZZ=    85.0838
   Eigenvalues:    62.7078    87.1934   147.5528
 14  C    Isotropic =   169.0721   Anisotropy =    17.5150
   XX=   169.1402   YX=    -6.0371   ZX=    -2.5096
   XY=   -10.6703   YY=   167.3905   ZY=     4.4632
   XZ=    -7.1100   YZ=     4.0144   ZZ=   170.6856
   Eigenvalues:   159.8654   166.6022   180.7487
 15  O    Isotropic =   123.5353   Anisotropy =   142.4755
   XX=    49.4640   YX=   -33.7080   ZX=   -83.4337
   XY=   -22.4712   YY=   186.4895   ZY=    14.7650
   XZ=   -19.2631   YZ=    54.6124   ZZ=   134.6525
   Eigenvalues:    24.5725   127.5145   218.5190
 16  C    Isotropic =    48.9110   Anisotropy =   156.5371
   XX=    53.0322   YX=    26.3369   ZX=   -34.9891
   XY=    21.1942   YY=   -22.0664   ZY=   -58.1837
   XZ=   -36.3675   YZ=   -54.6517   ZZ=   115.7673
   Eigenvalues:   -43.4553    36.9193   153.2691
 17  C    Isotropic =    47.9983   Anisotropy =    99.8862
   XX=    30.6066   YX=   -36.8693   ZX=   -51.6854
   XY=   -36.3993   YY=    39.0688   ZY=   -45.1857
   XZ=   -51.5839   YZ=   -44.9162   ZZ=    74.3196
   Eigenvalues:   -42.3019    71.7077   114.5891
 18  Cl   Isotropic =   709.1986   Anisotropy =   495.9503
   XX=   760.3144   YX=   189.2948   ZX=   163.1722
   XY=   188.4077   YY=   686.7222   ZY=   134.4690
   XZ=   162.3644   YZ=   134.0413   ZZ=   680.5592
   Eigenvalues:   531.1153   556.6483  1039.8321
 19  C    Isotropic =    42.3889   Anisotropy =   163.0132
   XX=   -17.0151   YX=    46.9923   ZX=   -56.8462
   XY=    48.1181   YY=    28.5219   ZY=   -25.5775
   XZ=   -58.0920   YZ=   -24.8163   ZZ=   115.6598
   Eigenvalues:   -55.3791    31.4813   151.0643
 20  C    Isotropic =    59.4989   Anisotropy =   147.3197
   XX=    60.0211   YX=    26.0239   ZX=   -33.8248
   XY=    28.7387   YY=    -5.1894   ZY=   -49.6124
   XZ=   -33.0006   YZ=   -50.1663   ZZ=   123.6650
   Eigenvalues:   -25.2699    46.0546   157.7120
 21  H    Isotropic =    19.8159   Anisotropy =    25.1691
   XX=    26.9287   YX=   -12.6899   ZX=     3.4826
   XY=   -10.0671   YY=    23.0692   ZY=     3.0497
   XZ=     4.7714   YZ=     2.9975   ZZ=     9.4498
   Eigenvalues:     6.0597    16.7927    36.5953
 22  H    Isotropic =    27.2760   Anisotropy =     4.7758
   XX=    26.6583   YX=     0.7297   ZX=     1.9490
   XY=    -0.4248   YY=    25.9672   ZY=    -1.2623
   XZ=     2.1823   YZ=    -0.4598   ZZ=    29.2024
   Eigenvalues:    25.1081    26.2600    30.4598
 23  H    Isotropic =    27.3666   Anisotropy =     3.7803
   XX=    28.1013   YX=     0.7609   ZX=    -0.9493
   XY=    -0.5179   YY=    29.5456   ZY=     1.1819
   XZ=    -0.8288   YZ=     1.5172   ZZ=    24.4529
   Eigenvalues:    23.9267    28.2864    29.8868
 24  H    Isotropic =    29.9392   Anisotropy =    14.8026
   XX=    31.4767   YX=    -4.1556   ZX=    -1.2657
   XY=    -4.7719   YY=    34.5384   ZY=     6.2317
   XZ=    -2.7829   YZ=     4.9616   ZZ=    23.8026
   Eigenvalues:    21.4142    28.5958    39.8076
 25  H    Isotropic =    29.1296   Anisotropy =     4.7083
   XX=    29.0590   YX=     2.6667   ZX=     0.0451
   XY=     4.5053   YY=    28.1622   ZY=    -0.9145
   XZ=    -0.6627   YZ=     0.6964   ZZ=    30.1675
   Eigenvalues:    24.9938    30.1265    32.2684
 26  H    Isotropic =    29.4276   Anisotropy =     4.9089
   XX=    29.9100   YX=    -1.9403   ZX=    -1.7851
   XY=    -0.9321   YY=    29.0086   ZY=    -2.3961
   XZ=    -4.0213   YZ=    -2.5220   ZZ=    29.3643
   Eigenvalues:    24.8398    30.7429    32.7003
 27  H    Isotropic =    24.8758   Anisotropy =    12.8386
   XX=    22.9327   YX=     1.1722   ZX=    -2.6197
   XY=     3.6754   YY=    22.4700   ZY=    -4.0118
   XZ=    -7.2145   YZ=    -2.6301   ZZ=    29.2247
   Eigenvalues:    19.9830    21.2095    33.4349
 28  H    Isotropic =    26.8010   Anisotropy =     6.4585
   XX=    25.3793   YX=     0.4524   ZX=     0.2032
   XY=    -0.4720   YY=    27.0379   ZY=    -2.6971
   XZ=     0.4331   YZ=    -4.4084   ZZ=    27.9857
   Eigenvalues:    23.8998    25.3965    31.1066
 29  H    Isotropic =    30.0705   Anisotropy =     9.9347
   XX=    28.5022   YX=     1.6466   ZX=     0.1316
   XY=     2.2048   YY=    35.4106   ZY=     2.6345
   XZ=     0.4970   YZ=     3.0902   ZZ=    26.2987
   Eigenvalues:    25.4544    28.0635    36.6936
 30  H    Isotropic =    30.3465   Anisotropy =     9.6124
   XX=    33.1278   YX=    -3.7263   ZX=     2.4216
   XY=    -4.0869   YY=    31.0501   ZY=    -1.1400
   XZ=     2.4768   YZ=    -0.6076   ZZ=    26.8615
   Eigenvalues:    25.9540    28.3306    36.7548
 31  H    Isotropic =    30.5433   Anisotropy =     5.0935
   XX=    27.6351   YX=     0.7354   ZX=    -2.9565
   XY=     0.8144   YY=    31.9402   ZY=    -0.4502
   XZ=    -3.1393   YZ=    -0.5687   ZZ=    32.0547
   Eigenvalues:    26.0439    31.6471    33.9390
 32  H    Isotropic =    23.7142   Anisotropy =    12.4064
   XX=    30.2144   YX=    -0.5492   ZX=     4.5443
   XY=    -0.1318   YY=    20.7316   ZY=     0.8446
   XZ=     4.5925   YZ=     0.5942   ZZ=    20.1967
   Eigenvalues:    18.1793    20.9782    31.9851
 33  H    Isotropic =    24.0070   Anisotropy =     7.1986
   XX=    23.0873   YX=     0.8545   ZX=     1.5547
   XY=     0.3669   YY=    27.1595   ZY=     2.9519
   XZ=     1.2507   YZ=     3.2527   ZZ=    21.7741
   Eigenvalues:    20.0024    23.2124    28.8061
 34  H    Isotropic =    24.4922   Anisotropy =     5.5604
   XX=    27.1780   YX=    -0.7953   ZX=     2.2785
   XY=    -0.0566   YY=    23.8680   ZY=     1.2353
   XZ=     2.5752   YZ=     0.9182   ZZ=    22.4307
   Eigenvalues:    20.9503    24.3272    28.1992
 End of Minotr Frequency-dependent properties file   721 does not exist.
 End of Minotr Frequency-dependent properties file   722 does not exist.

 **********************************************************************

            Population analysis using the SCF density.

 **********************************************************************

 Orbital symmetries:
       Occupied  (A) (A) (A) (A) (A) (A) (A) (A) (A) (A) (A) (A)
                 (A) (A) (A) (A) (A) (A) (A) (A) (A) (A) (A) (A)
                 (A) (A) (A) (A) (A) (A) (A) (A) (A) (A) (A) (A)
                 (A) (A) (A) (A) (A) (A) (A) (A) (A) (A) (A) (A)
                 (A) (A) (A) (A) (A) (A) (A) (A) (A) (A) (A) (A)
                 (A) (A) (A) (A) (A) (A) (A) (A) (A) (A) (A) (A)
                 (A) (A) (A) (A) (A) (A)
       Virtual   (A) (A) (A) (A) (A) (A) (A) (A) (A) (A) (A) (A)
                 (A) (A) (A) (A) (A) (A) (A) (A) (A) (A) (A) (A)
                 (A) (A) (A) (A) (A) (A) (A) (A) (A) (A) (A) (A)
                 (A) (A) (A) (A) (A) (A) (A) (A) (A) (A) (A) (A)
                 (A) (A) (A) (A) (A) (A) (A) (A) (A) (A) (A) (A)
                 (A) (A) (A) (A) (A) (A) (A) (A) (A) (A) (A) (A)
                 (A) (A) (A) (A) (A) (A) (A) (A) (A) (A) (A) (A)
                 (A) (A) (A) (A) (A) (A) (A) (A) (A) (A) (A) (A)
                 (A) (A) (A) (A) (A) (A) (A) (A) (A) (A) (A) (A)
                 (A) (A) (A) (A) (A) (A) (A) (A) (A) (A) (A) (A)
                 (A) (A) (A) (A) (A) (A) (A) (A) (A) (A) (A) (A)
                 (A) (A) (A) (A) (A) (A) (A) (A) (A) (A) (A) (A)
                 (A) (A) (A) (A) (A) (A) (A) (A) (A) (A) (A) (A)
                 (A) (A) (A) (A) (A) (A) (A) (A) (A) (A) (A) (A)
                 (A) (A) (A) (A) (A) (A) (A) (A) (A) (A) (A) (A)
                 (A) (A) (A) (A) (A) (A) (A) (A) (A) (A) (A) (A)
                 (A) (A) (A) (A) (A) (A) (A) (A) (A) (A) (A) (A)
                 (A) (A) (A) (A) (A) (A) (A) (A) (A) (A) (A) (A)
                 (A) (A) (A) (A) (A) (A) (A) (A) (A) (A) (A) (A)
                 (A) (A) (A) (A) (A) (A) (A) (A) (A) (A) (A) (A)
                 (A) (A) (A) (A) (A) (A) (A) (A) (A) (A) (A) (A)
                 (A) (A) (A) (A) (A) (A) (A) (A) (A) (A) (A) (A)
                 (A) (A) (A) (A) (A) (A) (A) (A) (A) (A) (A) (A)
                 (A) (A) (A) (A) (A) (A) (A) (A) (A) (A) (A) (A)
                 (A) (A) (A) (A) (A) (A) (A) (A) (A) (A) (A) (A)
                 (A) (A) (A) (A) (A) (A) (A) (A) (A) (A) (A) (A)
                 (A) (A) (A) (A) (A) (A) (A) (A) (A) (A) (A) (A)
                 (A) (A) (A) (A) (A) (A) (A) (A) (A) (A) (A) (A)
                 (A) (A) (A) (A) (A) (A) (A) (A) (A) (A) (A) (A)
                 (A) (A) (A) (A) (A) (A) (A) (A) (A) (A) (A) (A)
                 (A) (A) (A) (A) (A) (A) (A) (A) (A) (A) (A) (A)
                 (A) (A) (A) (A) (A) (A) (A) (A) (A) (A) (A) (A)
                 (A) (A) (A) (A) (A) (A) (A) (A) (A) (A) (A) (A)
                 (A) (A) (A) (A) (A) (A) (A) (A) (A) (A) (A) (A)
                 (A) (A) (A) (A) (A) (A) (A) (A) (A) (A) (A) (A)
                 (A) (A) (A) (A) (A) (A) (A) (A) (A) (A) (A) (A)
                 (A) (A) (A) (A) (A) (A) (A) (A) (A) (A) (A) (A)
                 (A) (A) (A) (A) (A) (A) (A) (A) (A) (A) (A) (A)
                 (A) (A) (A) (A) (A) (A) (A) (A) (A) (A) (A) (A)
                 (A) (A) (A) (A) (A) (A) (A) (A) (A) (A) (A) (A)
                 (A) (A) (A) (A) (A) (A) (A) (A) (A) (A) (A) (A)
                 (A) (A) (A) (A) (A) (A) (A) (A) (A) (A) (A) (A)
                 (A) (A) (A) (A) (A) (A) (A) (A) (A) (A) (A) (A)
                 (A) (A) (A) (A) (A) (A) (A) (A) (A) (A) (A) (A)
                 (A) (A) (A) (A) (A) (A) (A) (A) (A) (A) (A) (A)
                 (A) (A) (A) (A) (A) (A) (A) (A) (A) (A) (A) (A)
 The electronic state is 1-A.
 Alpha  occ. eigenvalues -- -101.55979 -19.18167 -19.17531 -19.15537 -19.13568
 Alpha  occ. eigenvalues --  -19.12700 -14.31595 -10.31902 -10.28591 -10.25654
 Alpha  occ. eigenvalues --  -10.24114 -10.23827 -10.23406 -10.21442 -10.20505
 Alpha  occ. eigenvalues --  -10.19881 -10.19731 -10.18743 -10.18617 -10.16760
 Alpha  occ. eigenvalues --   -9.47429  -7.23865  -7.22924  -7.22899  -1.12341
 Alpha  occ. eigenvalues --   -1.11331  -1.07407  -1.04090  -1.03285  -0.92722
 Alpha  occ. eigenvalues --   -0.90213  -0.85099  -0.82034  -0.78731  -0.77108
 Alpha  occ. eigenvalues --   -0.74126  -0.71849  -0.68118  -0.64591  -0.63340
 Alpha  occ. eigenvalues --   -0.61163  -0.60067  -0.59019  -0.55009  -0.53679
 Alpha  occ. eigenvalues --   -0.52903  -0.51305  -0.50643  -0.49791  -0.48432
 Alpha  occ. eigenvalues --   -0.47969  -0.47347  -0.46113  -0.45671  -0.44379
 Alpha  occ. eigenvalues --   -0.44002  -0.43234  -0.42128  -0.41595  -0.40830
 Alpha  occ. eigenvalues --   -0.40177  -0.39842  -0.39295  -0.38932  -0.38438
 Alpha  occ. eigenvalues --   -0.37310  -0.36838  -0.36322  -0.34316  -0.33954
 Alpha  occ. eigenvalues --   -0.32436  -0.32405  -0.30487  -0.30229  -0.29890
 Alpha  occ. eigenvalues --   -0.28327  -0.26254  -0.23474
 Alpha virt. eigenvalues --   -0.06212  -0.02126  -0.01136  -0.00157   0.00842
 Alpha virt. eigenvalues --    0.01017   0.01468   0.01683   0.02538   0.03094
 Alpha virt. eigenvalues --    0.03411   0.03490   0.04648   0.04845   0.05563
 Alpha virt. eigenvalues --    0.05699   0.05988   0.06537   0.07023   0.07525
 Alpha virt. eigenvalues --    0.07860   0.08337   0.08431   0.08771   0.09132
 Alpha virt. eigenvalues --    0.09908   0.10157   0.10473   0.11057   0.11286
 Alpha virt. eigenvalues --    0.12064   0.12471   0.12716   0.13020   0.13380
 Alpha virt. eigenvalues --    0.13953   0.14430   0.14603   0.14742   0.15025
 Alpha virt. eigenvalues --    0.15181   0.15753   0.16188   0.16521   0.16816
 Alpha virt. eigenvalues --    0.17174   0.17255   0.17733   0.17766   0.18182
 Alpha virt. eigenvalues --    0.18465   0.18843   0.19047   0.19116   0.19365
 Alpha virt. eigenvalues --    0.20052   0.20447   0.20548   0.20885   0.21128
 Alpha virt. eigenvalues --    0.21654   0.22108   0.22542   0.22638   0.23002
 Alpha virt. eigenvalues --    0.23286   0.23821   0.24131   0.24444   0.24848
 Alpha virt. eigenvalues --    0.25003   0.25155   0.26030   0.26388   0.26693
 Alpha virt. eigenvalues --    0.27007   0.27405   0.27487   0.27993   0.28128
 Alpha virt. eigenvalues --    0.28405   0.28978   0.29401   0.29604   0.30016
 Alpha virt. eigenvalues --    0.30395   0.30812   0.31039   0.31192   0.31995
 Alpha virt. eigenvalues --    0.32320   0.32840   0.32988   0.33266   0.34085
 Alpha virt. eigenvalues --    0.34514   0.34726   0.34862   0.35496   0.36352
 Alpha virt. eigenvalues --    0.36402   0.36775   0.37653   0.37878   0.38453
 Alpha virt. eigenvalues --    0.39131   0.39525   0.40260   0.40447   0.42041
 Alpha virt. eigenvalues --    0.42511   0.42996   0.43196   0.43900   0.44295
 Alpha virt. eigenvalues --    0.45317   0.45558   0.45802   0.46103   0.46903
 Alpha virt. eigenvalues --    0.48203   0.49611   0.49876   0.50191   0.51171
 Alpha virt. eigenvalues --    0.52119   0.52489   0.52823   0.53171   0.53654
 Alpha virt. eigenvalues --    0.54229   0.54911   0.55366   0.55819   0.56240
 Alpha virt. eigenvalues --    0.56310   0.57574   0.58205   0.58733   0.59542
 Alpha virt. eigenvalues --    0.59958   0.60205   0.60691   0.61548   0.62061
 Alpha virt. eigenvalues --    0.62526   0.63433   0.64324   0.64655   0.64819
 Alpha virt. eigenvalues --    0.65303   0.65559   0.66455   0.66863   0.67212
 Alpha virt. eigenvalues --    0.68073   0.68602   0.69383   0.69994   0.70739
 Alpha virt. eigenvalues --    0.71008   0.71601   0.71965   0.72447   0.72695
 Alpha virt. eigenvalues --    0.73536   0.74546   0.75194   0.76086   0.76321
 Alpha virt. eigenvalues --    0.77091   0.77274   0.77882   0.78116   0.78690
 Alpha virt. eigenvalues --    0.79683   0.80428   0.80738   0.81194   0.81829
 Alpha virt. eigenvalues --    0.82276   0.83351   0.83688   0.84580   0.85636
 Alpha virt. eigenvalues --    0.86156   0.87895   0.88795   0.89448   0.90271
 Alpha virt. eigenvalues --    0.91265   0.92221   0.92552   0.95395   0.95528
 Alpha virt. eigenvalues --    0.95868   0.97195   0.97487   0.98149   0.99159
 Alpha virt. eigenvalues --    0.99697   0.99999   1.00524   1.01043   1.03424
 Alpha virt. eigenvalues --    1.03938   1.04262   1.04914   1.05170   1.06182
 Alpha virt. eigenvalues --    1.07777   1.08165   1.08830   1.10521   1.11273
 Alpha virt. eigenvalues --    1.11966   1.12392   1.12756   1.13759   1.14242
 Alpha virt. eigenvalues --    1.14566   1.15077   1.16356   1.17029   1.17954
 Alpha virt. eigenvalues --    1.18933   1.19171   1.19468   1.19854   1.20419
 Alpha virt. eigenvalues --    1.21342   1.22553   1.23161   1.24576   1.25022
 Alpha virt. eigenvalues --    1.25468   1.26814   1.27593   1.28884   1.29438
 Alpha virt. eigenvalues --    1.29904   1.31577   1.32434   1.32868   1.33999
 Alpha virt. eigenvalues --    1.34185   1.34763   1.35275   1.36182   1.36898
 Alpha virt. eigenvalues --    1.37921   1.38218   1.39027   1.40734   1.41177
 Alpha virt. eigenvalues --    1.41778   1.42423   1.43276   1.44687   1.45951
 Alpha virt. eigenvalues --    1.48008   1.48644   1.50676   1.51414   1.52152
 Alpha virt. eigenvalues --    1.52667   1.53695   1.54725   1.56103   1.57751
 Alpha virt. eigenvalues --    1.59651   1.59806   1.61149   1.61545   1.62573
 Alpha virt. eigenvalues --    1.63234   1.65607   1.66634   1.68191   1.68670
 Alpha virt. eigenvalues --    1.69622   1.70611   1.73387   1.73838   1.74636
 Alpha virt. eigenvalues --    1.74897   1.75796   1.77036   1.78691   1.79996
 Alpha virt. eigenvalues --    1.81980   1.83470   1.84490   1.86163   1.86521
 Alpha virt. eigenvalues --    1.87816   1.89055   1.90426   1.91971   1.93110
 Alpha virt. eigenvalues --    1.93659   1.95078   1.95858   1.98541   1.99547
 Alpha virt. eigenvalues --    2.02596   2.03782   2.05161   2.08116   2.08369
 Alpha virt. eigenvalues --    2.10513   2.11766   2.13560   2.14672   2.15901
 Alpha virt. eigenvalues --    2.18139   2.18806   2.20116   2.20642   2.21809
 Alpha virt. eigenvalues --    2.23851   2.25639   2.26845   2.28087   2.28642
 Alpha virt. eigenvalues --    2.29850   2.30830   2.32749   2.34444   2.35273
 Alpha virt. eigenvalues --    2.36219   2.37376   2.37575   2.38911   2.39729
 Alpha virt. eigenvalues --    2.40020   2.41440   2.43019   2.44484   2.45393
 Alpha virt. eigenvalues --    2.48520   2.49051   2.49166   2.50065   2.51621
 Alpha virt. eigenvalues --    2.52296   2.52914   2.54538   2.57708   2.59845
 Alpha virt. eigenvalues --    2.61673   2.63180   2.63394   2.64092   2.64587
 Alpha virt. eigenvalues --    2.65064   2.67724   2.69126   2.70796   2.71260
 Alpha virt. eigenvalues --    2.74170   2.76566   2.78075   2.79397   2.80827
 Alpha virt. eigenvalues --    2.82942   2.83193   2.84261   2.85059   2.85477
 Alpha virt. eigenvalues --    2.87482   2.88597   2.89726   2.91321   2.92714
 Alpha virt. eigenvalues --    2.93385   2.96801   2.97655   2.99719   3.01007
 Alpha virt. eigenvalues --    3.01554   3.04708   3.06689   3.08281   3.09273
 Alpha virt. eigenvalues --    3.10588   3.11528   3.13202   3.15098   3.17988
 Alpha virt. eigenvalues --    3.18548   3.21196   3.23484   3.24029   3.25919
 Alpha virt. eigenvalues --    3.27623   3.30468   3.31023   3.32359   3.32829
 Alpha virt. eigenvalues --    3.33704   3.35659   3.36340   3.37419   3.39015
 Alpha virt. eigenvalues --    3.39859   3.41442   3.42091   3.42680   3.43353
 Alpha virt. eigenvalues --    3.44064   3.45361   3.47556   3.48404   3.49215
 Alpha virt. eigenvalues --    3.50416   3.50906   3.52302   3.52785   3.54818
 Alpha virt. eigenvalues --    3.55976   3.56305   3.56947   3.57781   3.58681
 Alpha virt. eigenvalues --    3.59032   3.60258   3.60508   3.61499   3.61905
 Alpha virt. eigenvalues --    3.63968   3.65428   3.66091   3.67474   3.68744
 Alpha virt. eigenvalues --    3.69518   3.70948   3.71623   3.73163   3.73458
 Alpha virt. eigenvalues --    3.75436   3.76253   3.76612   3.77509   3.79227
 Alpha virt. eigenvalues --    3.80738   3.81198   3.82948   3.84626   3.85244
 Alpha virt. eigenvalues --    3.86277   3.88479   3.89470   3.92769   3.95004
 Alpha virt. eigenvalues --    3.97315   3.97589   4.00251   4.03019   4.06112
 Alpha virt. eigenvalues --    4.08752   4.09313   4.11265   4.15682   4.16767
 Alpha virt. eigenvalues --    4.19886   4.23822   4.25283   4.25720   4.28191
 Alpha virt. eigenvalues --    4.34612   4.40440   4.42851   4.43786   4.48805
 Alpha virt. eigenvalues --    4.56069   4.58036   4.59314   4.74417   4.76067
 Alpha virt. eigenvalues --    4.87623   4.98166   5.03744   5.05665   5.07451
 Alpha virt. eigenvalues --    5.08538   5.14233   5.17470   5.20838   5.24684
 Alpha virt. eigenvalues --    5.25260   5.37949   5.41953   5.45798   5.46749
 Alpha virt. eigenvalues --    5.56019   5.59961   5.64895   5.77859   5.81462
 Alpha virt. eigenvalues --    5.92706   6.09799   6.10624   6.75453   6.81228
 Alpha virt. eigenvalues --    6.85302   6.85986   6.91253   6.95876   6.96518
 Alpha virt. eigenvalues --    6.99980   7.00242   7.01791   7.05917   7.07170
 Alpha virt. eigenvalues --    7.07208   7.10311   7.13810   7.15324   7.20796
 Alpha virt. eigenvalues --    7.22068   7.29538   7.31826   7.35414   7.37833
 Alpha virt. eigenvalues --    7.38566   7.41933   7.52582   9.89695  23.67041
 Alpha virt. eigenvalues --   23.91546  23.94551  23.96041  23.98729  24.00511
 Alpha virt. eigenvalues --   24.01659  24.05154  24.07883  24.11919  24.14081
 Alpha virt. eigenvalues --   24.18321  24.32450  25.87513  26.28120  27.40687
 Alpha virt. eigenvalues --   35.76894  49.92613  50.00450  50.02145  50.04720
 Alpha virt. eigenvalues --   50.08168 215.89894
          Condensed to atoms (all electrons):
              1          2          3          4          5          6
     1  O    8.341963   0.410477   0.028259  -0.075460   0.023224   0.016423
     2  C    0.410477   9.259721   0.207124  -0.424400  -0.022439   0.207306
     3  C    0.028259   0.207124   7.630041   0.279393   0.016568  -0.218470
     4  C   -0.075460  -0.424400   0.279393   6.960274   0.137325   0.212291
     5  N    0.023224  -0.022439   0.016568   0.137325   7.266075  -0.151552
     6  C    0.016423   0.207306  -0.218470   0.212291  -0.151552  11.298244
     7  C    0.007490  -0.099931   0.111083   0.207257   0.041837  -3.067180
     8  O   -0.000016   0.006402  -0.002492  -0.016758   0.016650   0.015145
     9  C   -0.012766   0.042812  -0.080483  -0.236418  -0.060500   1.080989
    10  C   -0.005184   0.022425  -0.033253  -0.161968  -0.016364  -0.385683
    11  O   -0.000011  -0.001384   0.001955   0.003383   0.001232  -0.012235
    12  O    0.000001   0.000502   0.000015   0.004492  -0.000047  -0.008516
    13  C   -0.020751  -0.146703  -0.044200  -0.931859   0.440091  -3.596040
    14  C    0.000199   0.015535   0.049558  -0.228113  -0.005490   0.356434
    15  O   -0.002469  -0.001190   0.013531   0.378317  -0.105923  -0.121055
    16  C    0.068674   0.106308   0.999658  -0.830639  -0.039091  -0.358836
    17  C   -0.042438  -1.082648  -1.150789   0.344132  -0.029253  -0.016695
    18  Cl  -0.000056   0.068153   0.089904  -0.051279   0.000055  -0.003041
    19  C    0.033212  -0.228012  -1.088290  -0.387385   0.009016   0.001099
    20  C   -0.386195  -2.163947  -0.818541   0.368511  -0.014477   0.050850
    21  H    0.232167  -0.005965  -0.044207  -0.024887   0.050868   0.007024
    22  H    0.000681   0.006013  -0.001510  -0.014844  -0.046903   0.487575
    23  H    0.000031   0.002654  -0.000616   0.005533   0.006886  -0.014909
    24  H   -0.000212  -0.005000   0.004369   0.002564   0.017314  -0.091372
    25  H   -0.000072   0.005702  -0.002862  -0.013781  -0.005606   0.001161
    26  H   -0.002144   0.005188   0.000602  -0.008438  -0.006681   0.017213
    27  H   -0.000001   0.000150  -0.000108  -0.000305  -0.000160  -0.000305
    28  H    0.000081  -0.009833  -0.000583  -0.029700  -0.006115  -0.070275
    29  H    0.000001   0.000331   0.004976  -0.006892   0.000648  -0.009523
    30  H    0.000001   0.000017  -0.000115  -0.006655  -0.000840   0.018562
    31  H    0.000008  -0.001447  -0.001947  -0.008074  -0.002263  -0.004643
    32  H   -0.000518   0.021048  -0.011642  -0.008725  -0.000204   0.003236
    33  H   -0.000676   0.029151  -0.011724  -0.001109   0.000005   0.000049
    34  H    0.002133  -0.189569  -0.009408   0.009572   0.000011  -0.000038
              7          8          9         10         11         12
     1  O    0.007490  -0.000016  -0.012766  -0.005184  -0.000011   0.000001
     2  C   -0.099931   0.006402   0.042812   0.022425  -0.001384   0.000502
     3  C    0.111083  -0.002492  -0.080483  -0.033253   0.001955   0.000015
     4  C    0.207257  -0.016758  -0.236418  -0.161968   0.003383   0.004492
     5  N    0.041837   0.016650  -0.060500  -0.016364   0.001232  -0.000047
     6  C   -3.067180   0.015145   1.080989  -0.385683  -0.012235  -0.008516
     7  C    8.856317   0.091615  -1.324344   0.020319  -0.016080   0.021617
     8  O    0.091615   8.239438   0.023147  -0.070808  -0.001235   0.008607
     9  C   -1.324344   0.023147   7.130553  -0.735651   0.266506  -0.044527
    10  C    0.020319  -0.070808  -0.735651   6.131159  -0.025125   0.400286
    11  O   -0.016080  -0.001235   0.266506  -0.025125   8.008549  -0.076248
    12  O    0.021617   0.008607  -0.044527   0.400286  -0.076248   8.244500
    13  C    0.997650  -0.019503  -0.298398   0.225916   0.003570   0.025392
    14  C   -0.481699   0.015987   0.062069  -0.015128   0.002863  -0.013939
    15  O    0.045433   0.000542  -0.028884   0.009865   0.000272  -0.000156
    16  C    0.027340  -0.002928  -0.044765  -0.026018   0.001077   0.000026
    17  C    0.036825  -0.000729  -0.022032  -0.005316   0.000273  -0.000073
    18  Cl  -0.000172  -0.000001  -0.000144   0.000088   0.000003   0.000000
    19  C    0.001353   0.000087  -0.010446  -0.006424  -0.000068   0.000015
    20  C    0.022669   0.000150   0.012271   0.013195   0.000369  -0.000008
    21  H   -0.003099  -0.000229   0.000730   0.001188   0.000062  -0.000010
    22  H   -0.085544  -0.001570   0.005103  -0.003690   0.000022   0.000130
    23  H    0.482684  -0.052217  -0.049863  -0.012102   0.000113  -0.006035
    24  H    0.139263   0.249062  -0.031182  -0.005224  -0.000027  -0.000482
    25  H   -0.018364   0.009394   0.392073  -0.036138   0.011914  -0.005384
    26  H   -0.042727  -0.011282   0.402993   0.000669   0.009054  -0.001340
    27  H    0.005430  -0.000372  -0.099646   0.086819   0.257817   0.015364
    28  H    0.015223  -0.000645   0.007010   0.001773  -0.000003  -0.000007
    29  H    0.010772  -0.000045  -0.001494   0.000577  -0.000007   0.000007
    30  H   -0.019604   0.000117   0.004911   0.000822   0.000007   0.000080
    31  H   -0.005234   0.000443   0.007349   0.002304  -0.000196  -0.000490
    32  H    0.001651   0.000000  -0.000451   0.000098  -0.000001   0.000000
    33  H   -0.000001   0.000000   0.000010   0.000001   0.000000   0.000000
    34  H   -0.000046   0.000000   0.000068   0.000023   0.000000   0.000000
             13         14         15         16         17         18
     1  O   -0.020751   0.000199  -0.002469   0.068674  -0.042438  -0.000056
     2  C   -0.146703   0.015535  -0.001190   0.106308  -1.082648   0.068153
     3  C   -0.044200   0.049558   0.013531   0.999658  -1.150789   0.089904
     4  C   -0.931859  -0.228113   0.378317  -0.830639   0.344132  -0.051279
     5  N    0.440091  -0.005490  -0.105923  -0.039091  -0.029253   0.000055
     6  C   -3.596040   0.356434  -0.121055  -0.358836  -0.016695  -0.003041
     7  C    0.997650  -0.481699   0.045433   0.027340   0.036825  -0.000172
     8  O   -0.019503   0.015987   0.000542  -0.002928  -0.000729  -0.000001
     9  C   -0.298398   0.062069  -0.028884  -0.044765  -0.022032  -0.000144
    10  C    0.225916  -0.015128   0.009865  -0.026018  -0.005316   0.000088
    11  O    0.003570   0.002863   0.000272   0.001077   0.000273   0.000003
    12  O    0.025392  -0.013939  -0.000156   0.000026  -0.000073   0.000000
    13  C    8.644409  -0.056657   0.135779   0.186320   0.003267   0.005223
    14  C   -0.056657   5.803290  -0.105436  -0.036640  -0.032258   0.000618
    15  O    0.135779  -0.105436   8.278494  -0.073513   0.013045  -0.000401
    16  C    0.186320  -0.036640  -0.073513   8.449578   0.266616   0.240721
    17  C    0.003267  -0.032258   0.013045   0.266616   8.876770  -0.693844
    18  Cl   0.005223   0.000618  -0.000401   0.240721  -0.693844  17.096372
    19  C   -0.048166  -0.009197  -0.006379  -0.681679  -1.467147   0.306792
    20  C    0.019479  -0.007997   0.006636  -1.874960   0.072760   0.038381
    21  H    0.006045  -0.000102   0.002782  -0.028978   0.011787   0.000020
    22  H   -0.028541   0.013522   0.007264  -0.000963  -0.000573   0.000001
    23  H   -0.037210  -0.000588  -0.001955  -0.002255  -0.000262  -0.000001
    24  H    0.020282  -0.001581  -0.000497   0.000337   0.000085   0.000000
    25  H    0.010991  -0.002931   0.009811  -0.003926  -0.001705   0.000002
    26  H   -0.013961   0.000416  -0.000845  -0.007388  -0.001295  -0.000005
    27  H    0.000531  -0.000365  -0.000018  -0.000046  -0.000022   0.000000
    28  H    0.478849  -0.032584  -0.048124   0.014629   0.000998  -0.000001
    29  H    0.003255   0.385080  -0.004046  -0.005405  -0.001121  -0.000005
    30  H   -0.070597   0.446578   0.007365  -0.000012   0.000053   0.000000
    31  H   -0.019782   0.399704   0.000675   0.005386   0.000524  -0.000001
    32  H    0.000163  -0.002024   0.008198   0.403632  -0.085389  -0.009300
    33  H   -0.000008   0.000002  -0.000008   0.021572  -0.066897  -0.004135
    34  H    0.000140   0.000006   0.000011  -0.026657   0.056450  -0.000974
             19         20         21         22         23         24
     1  O    0.033212  -0.386195   0.232167   0.000681   0.000031  -0.000212
     2  C   -0.228012  -2.163947  -0.005965   0.006013   0.002654  -0.005000
     3  C   -1.088290  -0.818541  -0.044207  -0.001510  -0.000616   0.004369
     4  C   -0.387385   0.368511  -0.024887  -0.014844   0.005533   0.002564
     5  N    0.009016  -0.014477   0.050868  -0.046903   0.006886   0.017314
     6  C    0.001099   0.050850   0.007024   0.487575  -0.014909  -0.091372
     7  C    0.001353   0.022669  -0.003099  -0.085544   0.482684   0.139263
     8  O    0.000087   0.000150  -0.000229  -0.001570  -0.052217   0.249062
     9  C   -0.010446   0.012271   0.000730   0.005103  -0.049863  -0.031182
    10  C   -0.006424   0.013195   0.001188  -0.003690  -0.012102  -0.005224
    11  O   -0.000068   0.000369   0.000062   0.000022   0.000113  -0.000027
    12  O    0.000015  -0.000008  -0.000010   0.000130  -0.006035  -0.000482
    13  C   -0.048166   0.019479   0.006045  -0.028541  -0.037210   0.020282
    14  C   -0.009197  -0.007997  -0.000102   0.013522  -0.000588  -0.001581
    15  O   -0.006379   0.006636   0.002782   0.007264  -0.001955  -0.000497
    16  C   -0.681679  -1.874960  -0.028978  -0.000963  -0.002255   0.000337
    17  C   -1.467147   0.072760   0.011787  -0.000573  -0.000262   0.000085
    18  Cl   0.306792   0.038381   0.000020   0.000001  -0.000001   0.000000
    19  C    9.886084  -0.014665  -0.010720   0.000100   0.000000  -0.000063
    20  C   -0.014665  10.199624   0.089744   0.000616   0.000107  -0.000235
    21  H   -0.010720   0.089744   0.263658  -0.000994  -0.000039   0.000235
    22  H    0.000100   0.000616  -0.000994   0.555031  -0.004878  -0.000605
    23  H    0.000000   0.000107  -0.000039  -0.004878   0.538283   0.005342
    24  H   -0.000063  -0.000235   0.000235  -0.000605   0.005342   0.399617
    25  H    0.000241   0.000675  -0.000071  -0.000051  -0.002427  -0.000491
    26  H    0.000403   0.002571   0.000707  -0.000570   0.005102   0.001334
    27  H    0.000004  -0.000012   0.000000  -0.000001  -0.000035  -0.000023
    28  H    0.000424  -0.002315  -0.000056  -0.012057  -0.000286  -0.000028
    29  H   -0.000048   0.000027   0.000000  -0.000221   0.000377   0.000004
    30  H   -0.000004   0.000012  -0.000002  -0.000298   0.000271  -0.000018
    31  H    0.000126  -0.000274  -0.000002  -0.000295  -0.003769  -0.000070
    32  H    0.015488   0.000574   0.000077  -0.000007  -0.000002   0.000000
    33  H    0.416550  -0.045881   0.000022   0.000000   0.000000   0.000000
    34  H   -0.091463   0.600573   0.000948   0.000000   0.000000  -0.000001
             25         26         27         28         29         30
     1  O   -0.000072  -0.002144  -0.000001   0.000081   0.000001   0.000001
     2  C    0.005702   0.005188   0.000150  -0.009833   0.000331   0.000017
     3  C   -0.002862   0.000602  -0.000108  -0.000583   0.004976  -0.000115
     4  C   -0.013781  -0.008438  -0.000305  -0.029700  -0.006892  -0.006655
     5  N   -0.005606  -0.006681  -0.000160  -0.006115   0.000648  -0.000840
     6  C    0.001161   0.017213  -0.000305  -0.070275  -0.009523   0.018562
     7  C   -0.018364  -0.042727   0.005430   0.015223   0.010772  -0.019604
     8  O    0.009394  -0.011282  -0.000372  -0.000645  -0.000045   0.000117
     9  C    0.392073   0.402993  -0.099646   0.007010  -0.001494   0.004911
    10  C   -0.036138   0.000669   0.086819   0.001773   0.000577   0.000822
    11  O    0.011914   0.009054   0.257817  -0.000003  -0.000007   0.000007
    12  O   -0.005384  -0.001340   0.015364  -0.000007   0.000007   0.000080
    13  C    0.010991  -0.013961   0.000531   0.478849   0.003255  -0.070597
    14  C   -0.002931   0.000416  -0.000365  -0.032584   0.385080   0.446578
    15  O    0.009811  -0.000845  -0.000018  -0.048124  -0.004046   0.007365
    16  C   -0.003926  -0.007388  -0.000046   0.014629  -0.005405  -0.000012
    17  C   -0.001705  -0.001295  -0.000022   0.000998  -0.001121   0.000053
    18  Cl   0.000002  -0.000005   0.000000  -0.000001  -0.000005   0.000000
    19  C    0.000241   0.000403   0.000004   0.000424  -0.000048  -0.000004
    20  C    0.000675   0.002571  -0.000012  -0.002315   0.000027   0.000012
    21  H   -0.000071   0.000707   0.000000  -0.000056   0.000000  -0.000002
    22  H   -0.000051  -0.000570  -0.000001  -0.012057  -0.000221  -0.000298
    23  H   -0.002427   0.005102  -0.000035  -0.000286   0.000377   0.000271
    24  H   -0.000491   0.001334  -0.000023  -0.000028   0.000004  -0.000018
    25  H    0.496648  -0.028801  -0.001074   0.000068  -0.000069  -0.000019
    26  H   -0.028801   0.494923  -0.000060   0.000034   0.000010  -0.000030
    27  H   -0.001074  -0.000060   0.384880   0.000000   0.000000   0.000000
    28  H    0.000068   0.000034   0.000000   0.569922  -0.007526  -0.003854
    29  H   -0.000069   0.000010   0.000000  -0.007526   0.528088  -0.023518
    30  H   -0.000019  -0.000030   0.000000  -0.003854  -0.023518   0.508961
    31  H   -0.000233   0.000193   0.000009   0.006067  -0.027259  -0.026777
    32  H   -0.000005   0.000006   0.000000   0.000007   0.000001  -0.000003
    33  H    0.000000   0.000000   0.000000   0.000000   0.000000   0.000000
    34  H    0.000000   0.000000   0.000000   0.000000   0.000000   0.000000
             31         32         33         34
     1  O    0.000008  -0.000518  -0.000676   0.002133
     2  C   -0.001447   0.021048   0.029151  -0.189569
     3  C   -0.001947  -0.011642  -0.011724  -0.009408
     4  C   -0.008074  -0.008725  -0.001109   0.009572
     5  N   -0.002263  -0.000204   0.000005   0.000011
     6  C   -0.004643   0.003236   0.000049  -0.000038
     7  C   -0.005234   0.001651  -0.000001  -0.000046
     8  O    0.000443   0.000000   0.000000   0.000000
     9  C    0.007349  -0.000451   0.000010   0.000068
    10  C    0.002304   0.000098   0.000001   0.000023
    11  O   -0.000196  -0.000001   0.000000   0.000000
    12  O   -0.000490   0.000000   0.000000   0.000000
    13  C   -0.019782   0.000163  -0.000008   0.000140
    14  C    0.399704  -0.002024   0.000002   0.000006
    15  O    0.000675   0.008198  -0.000008   0.000011
    16  C    0.005386   0.403632   0.021572  -0.026657
    17  C    0.000524  -0.085389  -0.066897   0.056450
    18  Cl  -0.000001  -0.009300  -0.004135  -0.000974
    19  C    0.000126   0.015488   0.416550  -0.091463
    20  C   -0.000274   0.000574  -0.045881   0.600573
    21  H   -0.000002   0.000077   0.000022   0.000948
    22  H   -0.000295  -0.000007   0.000000   0.000000
    23  H   -0.003769  -0.000002   0.000000   0.000000
    24  H   -0.000070   0.000000   0.000000  -0.000001
    25  H   -0.000233  -0.000005   0.000000   0.000000
    26  H    0.000193   0.000006   0.000000   0.000000
    27  H    0.000009   0.000000   0.000000   0.000000
    28  H    0.006067   0.000007   0.000000   0.000000
    29  H   -0.027259   0.000001   0.000000   0.000000
    30  H   -0.026777  -0.000003   0.000000   0.000000
    31  H    0.526949   0.000006   0.000000   0.000000
    32  H    0.000006   0.498398  -0.000111   0.000047
    33  H    0.000000  -0.000111   0.517312  -0.004854
    34  H    0.000000   0.000047  -0.004854   0.518305
 Mulliken atomic charges:
              1
     1  O   -0.616056
     2  C   -0.034548
     3  C    0.084203
     4  C    0.554645
     5  N   -0.513893
     6  C    0.356767
     7  C    0.020196
     8  O   -0.495956
     9  C   -0.356601
    10  C    0.626549
    11  O   -0.436417
    12  O   -0.563769
    13  C    0.125023
    14  C   -0.519132
    15  O   -0.417120
    16  C   -0.747172
    17  C    1.016901
    18  Cl  -0.082972
    19  C   -0.620838
    20  C   -0.170286
    21  H    0.451296
    22  H    0.128057
    23  H    0.142065
    24  H    0.297303
    25  H    0.185328
    26  H    0.184145
    27  H    0.351547
    28  H    0.128906
    29  H    0.153026
    30  H    0.164589
    31  H    0.153014
    32  H    0.165751
    33  H    0.150729
    34  H    0.134721
 Sum of Mulliken atomic charges =   0.00000
 Mulliken charges with hydrogens summed into heavy atoms:
              1
     1  O   -0.164760
     2  C   -0.034548
     3  C    0.084203
     4  C    0.554645
     5  N   -0.513893
     6  C    0.484824
     7  C    0.162261
     8  O   -0.198653
     9  C    0.012872
    10  C    0.626549
    11  O   -0.084871
    12  O   -0.563769
    13  C    0.253929
    14  C   -0.048503
    15  O   -0.417120
    16  C   -0.581421
    17  C    1.016901
    18  Cl  -0.082972
    19  C   -0.470110
    20  C   -0.035566
 Sum of Mulliken charges with hydrogens summed into heavy atoms =   0.00000
 Electronic spatial extent (au):  <R**2>=           7272.0970
 Charge=              0.0000 electrons
 Dipole moment (field-independent basis, Debye):
    X=              0.6829    Y=              1.7560    Z=              0.1649  Tot=              1.8913
 Quadrupole moment (field-independent basis, Debye-Ang):
   XX=           -151.2182   YY=           -116.1237   ZZ=           -120.7485
   XY=             -9.4304   XZ=             -4.0278   YZ=             -9.5514
 Traceless Quadrupole moment (field-independent basis, Debye-Ang):
   XX=            -21.8548   YY=             13.2398   ZZ=              8.6150
   XY=             -9.4304   XZ=             -4.0278   YZ=             -9.5514
 Octapole moment (field-independent basis, Debye-Ang**2):
  XXX=            105.4682  YYY=             11.6936  ZZZ=             38.6568  XYY=            -26.3499
  XXY=            -33.7764  XXZ=              4.2422  XZZ=            -51.2239  YZZ=             -2.7432
  YYZ=              3.8679  XYZ=             23.3404
 Hexadecapole moment (field-independent basis, Debye-Ang**3):
 XXXX=          -7613.7454 YYYY=          -1473.1641 ZZZZ=          -1138.2321 XXXY=           -152.0798
 XXXZ=            -83.1166 YYYX=             11.4415 YYYZ=            -33.9891 ZZZX=           -156.8500
 ZZZY=            -89.8741 XXYY=          -1236.1943 XXZZ=          -1271.0412 YYZZ=           -436.4197
 XXYZ=           -130.3903 YYXZ=            -12.0143 ZZXY=             91.1604
 N-N= 1.706667911874D+03 E-N=-6.692589729798D+03  KE= 1.390558164503D+03
 1\1\GINC-PROD2-0124\SP\RB3LYP\6-311+G(2d,p)\C13H14Cl1N1O5\YUHENG\26-Ma
 r-2019\0\\# b3lyp/6-311+G(2d,p) nmr guess=read geom=check integral(ult
 rafinegrid) scrf=(iefpcm,read,solvent=methanol)\\Candidate Structure: 
 1b, Conformer: 4, NMR calculation with methanol solvation\\0,1\O,0,0.9
 952700463,-2.2223558351,-1.5862502403\C,0,1.8551107816,-1.4477673345,-
 0.9063981849\C,0,1.5519639594,-0.1228310296,-0.5295687546\C,0,0.247533
 885,0.4381224609,-0.8741150899\N,0,-0.6525855311,-0.1771266994,-1.5529
 348058\C,0,-1.8544116254,0.6722108619,-1.5316814661\C,0,-2.9231447747,
 0.0364702992,-0.6278783618\O,0,-3.5242428379,-1.0689158562,-1.28007713
 32\C,0,-2.3828519141,-0.3924015327,0.7353388081\C,0,-3.4975751102,-0.6
 857479406,1.7104014624\O,0,-3.1070036331,-1.5209120246,2.6790708859\O,
 0,-4.6100203347,-0.2080968038,1.6610825782\C,0,-1.2926869924,2.0412607
 671,-1.0908218331\C,0,-2.128227317,2.9236458448,-0.1899885977\O,0,-0.0
 509122997,1.6723467264,-0.4226796072\C,0,2.4886038686,0.6412116733,0.1
 803239098\C,0,3.7106935547,0.0846564339,0.5081835654\Cl,0,4.8842313117
 ,1.0328348058,1.3931303595\C,0,4.0244522216,-1.2275224951,0.1430734674
 \C,0,3.101209588,-1.9858230853,-0.5592641093\H,0,0.1662971013,-1.70482
 86196,-1.7588909735\H,0,-2.2864585239,0.7415994194,-2.5345410525\H,0,-
 3.7332844098,0.7595159376,-0.4861416534\H,0,-2.8313154035,-1.714289470
 5,-1.5067810574\H,0,-1.7546774109,0.3828489378,1.1940934184\H,0,-1.750
 968257,-1.2806757761,0.6345104497\H,0,-3.8468720826,-1.6474070462,3.30
 99334648\H,0,-0.9951031014,2.5993349338,-1.9870207881\H,0,-1.571349185
 7,3.8291852904,0.0604206959\H,0,-3.040445825,3.21984957,-0.7156282239\
 H,0,-2.4093912606,2.4225702788,0.7391889667\H,0,2.2454540116,1.6606496
 234,0.4642987925\H,0,4.9893866298,-1.6488605537,0.4101856717\H,0,3.326
 1458591,-3.007236521,-0.8511009439\\Version=EM64L-G09RevB.01\State=1-A
 \HF=-1395.2559733\RMSD=2.033e-09\Dipole=0.268685,0.6908451,0.0648922\Q
 uadrupole=-16.2484845,9.8434309,6.4050535,-7.0112595,-2.994595,-7.1012
 062\PG=C01 [X(C13H14Cl1N1O5)]\\@


 ... FOR AFTERWARDS A MAN FINDS PLEASURE IN HIS PAINS,
 WHEN HE HAS SUFFERED LONG AND WANDERED FAR.

                                    -- HOMER
 Job cpu time:  0 days  2 hours 39 minutes  1.0 seconds.
 File lengths (MBytes):  RWF=    327 Int=      0 D2E=      0 Chk=     32 Scr=      1
 Normal termination of Gaussian 09 at Tue Mar 26 03:03:20 2019.
