 Entering Gaussian System, Link 0=g09
 Initial command:
 /home/yuheng/proj/yuheng/g09/l1.exe /home/yuheng/proj/yuheng/g09_scratch/Gau-183848.inp -scrdir=/home/yuheng/proj/yuheng/g09_scratch/
 Entering Link 1 = /home/yuheng/proj/yuheng/g09/l1.exe PID=    183849.
  
 Copyright (c) 1988,1990,1992,1993,1995,1998,2003,2009,2010,
            Gaussian, Inc.  All Rights Reserved.
  
 This is part of the Gaussian(R) 09 program.  It is based on
 the Gaussian(R) 03 system (copyright 2003, Gaussian, Inc.),
 the Gaussian(R) 98 system (copyright 1998, Gaussian, Inc.),
 the Gaussian(R) 94 system (copyright 1995, Gaussian, Inc.),
 the Gaussian 92(TM) system (copyright 1992, Gaussian, Inc.),
 the Gaussian 90(TM) system (copyright 1990, Gaussian, Inc.),
 the Gaussian 88(TM) system (copyright 1988, Gaussian, Inc.),
 the Gaussian 86(TM) system (copyright 1986, Carnegie Mellon
 University), and the Gaussian 82(TM) system (copyright 1983,
 Carnegie Mellon University). Gaussian is a federally registered
 trademark of Gaussian, Inc.
  
 This software contains proprietary and confidential information,
 including trade secrets, belonging to Gaussian, Inc.
  
 This software is provided under written license and may be
 used, copied, transmitted, or stored only in accord with that
 written license.
  
 The following legend is applicable only to US Government
 contracts under FAR:
  
                    RESTRICTED RIGHTS LEGEND
  
 Use, reproduction and disclosure by the US Government is
 subject to restrictions as set forth in subparagraphs (a)
 and (c) of the Commercial Computer Software - Restricted
 Rights clause in FAR 52.227-19.
  
 Gaussian, Inc.
 340 Quinnipiac St., Bldg. 40, Wallingford CT 06492
  
  
 ---------------------------------------------------------------
 Warning -- This program may not be used in any manner that
 competes with the business of Gaussian, Inc. or will provide
 assistance to any competitor of Gaussian, Inc.  The licensee
 of this program is prohibited from giving any competitor of
 Gaussian, Inc. access to this program.  By using this program,
 the user acknowledges that Gaussian, Inc. is engaged in the
 business of creating and licensing software in the field of
 computational chemistry and represents and warrants to the
 licensee that it is not a competitor of Gaussian, Inc. and that
 it will not use this program in any manner prohibited above.
 ---------------------------------------------------------------
  

 Cite this work as:
 Gaussian 09, Revision B.01,
 M. J. Frisch, G. W. Trucks, H. B. Schlegel, G. E. Scuseria, 
 M. A. Robb, J. R. Cheeseman, G. Scalmani, V. Barone, B. Mennucci, 
 G. A. Petersson, H. Nakatsuji, M. Caricato, X. Li, H. P. Hratchian, 
 A. F. Izmaylov, J. Bloino, G. Zheng, J. L. Sonnenberg, M. Hada, 
 M. Ehara, K. Toyota, R. Fukuda, J. Hasegawa, M. Ishida, T. Nakajima, 
 Y. Honda, O. Kitao, H. Nakai, T. Vreven, J. A. Montgomery, Jr., 
 J. E. Peralta, F. Ogliaro, M. Bearpark, J. J. Heyd, E. Brothers, 
 K. N. Kudin, V. N. Staroverov, T. Keith, R. Kobayashi, J. Normand, 
 K. Raghavachari, A. Rendell, J. C. Burant, S. S. Iyengar, J. Tomasi, 
 M. Cossi, N. Rega, J. M. Millam, M. Klene, J. E. Knox, J. B. Cross, 
 V. Bakken, C. Adamo, J. Jaramillo, R. Gomperts, R. E. Stratmann, 
 O. Yazyev, A. J. Austin, R. Cammi, C. Pomelli, J. W. Ochterski, 
 R. L. Martin, K. Morokuma, V. G. Zakrzewski, G. A. Voth, 
 P. Salvador, J. J. Dannenberg, S. Dapprich, A. D. Daniels, 
 O. Farkas, J. B. Foresman, J. V. Ortiz, J. Cioslowski, 
 and D. J. Fox, Gaussian, Inc., Wallingford CT, 2010.
 
 ******************************************
 Gaussian 09:  EM64L-G09RevB.01 12-Aug-2010
                26-Mar-2019 
 ******************************************
 %mem=16gb
 %nprocshared=20
 Will use up to   20 processors via shared memory.
 %chk=1b-conf-19.chk
 ----------------------------------------------------------------------
 # b3lyp/6-311+G(2d,p) nmr guess=read geom=check integral(ultrafinegrid
 ) scrf=(iefpcm,read,solvent=methanol)
 ----------------------------------------------------------------------
 1/29=2,38=1,40=2/1;
 2/12=2,40=1/2;
 3/5=4,6=6,7=112,11=2,14=-4,16=1,25=1,30=1,70=2203,72=3,74=-5,75=-5,116=-2/1,2,8,3;
 4/5=1/1;
 5/5=2,38=6,53=3/2;
 8/6=1,10=90,11=11/1;
 10/13=100,45=16/2;
 6/7=2,8=2,9=2,10=2,28=1/1;
 99/9=1/99;
 ----------------------------------------------------------------------
 Candidate Structure: 1b, Conformer: 19, NMR calculation with methanol 
 solvation
 ----------------------------------------------------------------------
 Redundant internal coordinates taken from checkpoint file:
 1b-conf-19.chk
 Charge =  0 Multiplicity = 1
 O,0,-0.8377026595,-2.7518930083,-0.2529937431
 C,0,-1.6340503492,-1.6618134948,-0.1997406721
 C,0,-1.2147413262,-0.345054015,-0.4626903392
 C,0,0.1678011396,0.0031678591,-0.8277752279
 N,0,0.648239573,1.1809475662,-0.9160814205
 C,0,2.0920424164,1.0189554377,-1.1564404104
 C,0,2.8968185657,1.4139844796,0.1072803079
 O,0,3.1528348165,2.8099410003,0.0877162634
 C,0,2.2351911819,1.0787548349,1.459726059
 C,0,2.0933981043,-0.3909296028,1.7693185901
 O,0,0.8224740571,-0.7763834487,1.932465949
 O,0,3.0315817301,-1.1509487387,1.9022194615
 C,0,2.198522233,-0.4278708308,-1.6737845665
 C,0,3.4324548477,-1.2471629969,-1.3759729059
 O,0,1.0147041364,-1.0347451273,-1.0870617854
 C,0,-2.1372507461,0.7079785822,-0.3493556843
 C,0,-3.4465543848,0.4505993531,0.0064249607
 Cl,0,-4.5853573811,1.7723359736,0.1337714442
 C,0,-3.8758415958,-0.8540751691,0.2654340322
 C,0,-2.9694586763,-1.8958110335,0.1626334362
 H,0,0.060344379,-2.5178860317,-0.5406008662
 H,0,2.419963739,1.7081416426,-1.9411572348
 H,0,3.882351624,0.9376877873,0.0572358352
 H,0,2.308376884,3.2850889132,-0.0023124827
 H,0,1.2630784809,1.5706663281,1.524143686
 H,0,2.8956819903,1.4927003415,2.2273787476
 H,0,0.804787419,-1.7317326642,2.1520126651
 H,0,2.0130082785,-0.4125356826,-2.755008015
 H,0,3.6118998837,-1.3440114287,-0.3043839149
 H,0,3.3317007431,-2.2443962513,-1.809969429
 H,0,4.3008946233,-0.7665932439,-1.8369312882
 H,0,-1.7993709321,1.7203746854,-0.547437992
 H,0,-4.9073628097,-1.0468775609,0.5444761433
 H,0,-3.2730809435,-2.9190771908,0.3618948969
 Recover connectivity data from disk.
                          Input orientation:                          
 ---------------------------------------------------------------------
 Center     Atomic      Atomic             Coordinates (Angstroms)
 Number     Number       Type             X           Y           Z
 ---------------------------------------------------------------------
      1          8           0       -0.837703   -2.751893   -0.252994
      2          6           0       -1.634050   -1.661813   -0.199741
      3          6           0       -1.214741   -0.345054   -0.462690
      4          6           0        0.167801    0.003168   -0.827775
      5          7           0        0.648240    1.180948   -0.916081
      6          6           0        2.092042    1.018955   -1.156440
      7          6           0        2.896819    1.413984    0.107280
      8          8           0        3.152835    2.809941    0.087716
      9          6           0        2.235191    1.078755    1.459726
     10          6           0        2.093398   -0.390930    1.769319
     11          8           0        0.822474   -0.776383    1.932466
     12          8           0        3.031582   -1.150949    1.902219
     13          6           0        2.198522   -0.427871   -1.673785
     14          6           0        3.432455   -1.247163   -1.375973
     15          8           0        1.014704   -1.034745   -1.087062
     16          6           0       -2.137251    0.707979   -0.349356
     17          6           0       -3.446554    0.450599    0.006425
     18         17           0       -4.585357    1.772336    0.133771
     19          6           0       -3.875842   -0.854075    0.265434
     20          6           0       -2.969459   -1.895811    0.162633
     21          1           0        0.060344   -2.517886   -0.540601
     22          1           0        2.419964    1.708142   -1.941157
     23          1           0        3.882352    0.937688    0.057236
     24          1           0        2.308377    3.285089   -0.002312
     25          1           0        1.263078    1.570666    1.524144
     26          1           0        2.895682    1.492700    2.227379
     27          1           0        0.804787   -1.731733    2.152013
     28          1           0        2.013008   -0.412536   -2.755008
     29          1           0        3.611900   -1.344011   -0.304384
     30          1           0        3.331701   -2.244396   -1.809969
     31          1           0        4.300895   -0.766593   -1.836931
     32          1           0       -1.799371    1.720375   -0.547438
     33          1           0       -4.907363   -1.046878    0.544476
     34          1           0       -3.273081   -2.919077    0.361895
 ---------------------------------------------------------------------
                    Distance matrix (angstroms):
                    1          2          3          4          5
     1  O    0.000000
     2  C    1.351029   0.000000
     3  C    2.445200   1.406705   0.000000
     4  C    2.988607   2.532441   1.471723   0.000000
     5  N    4.256165   3.715277   2.450498   1.275062   0.000000
     6  C    4.859930   4.688877   3.643711   2.200579   1.472610
     7  C    5.606334   5.484849   4.508216   3.211272   2.481468
     8  O    6.853792   6.556942   5.415964   4.198396   3.151861
     9  C    5.200957   5.023502   4.198208   3.265525   2.858902
    10  C    4.272616   4.402978   3.990959   3.257013   3.430839
    11  O    3.381576   3.371172   3.173809   2.941977   3.460596
    12  O    4.709493   5.142698   4.926817   4.121419   4.365877
    13  C    4.079018   4.287660   3.622703   2.241730   2.359192
    14  C    4.664712   5.217752   4.821236   3.538617   3.722778
    15  O    2.660015   2.862945   2.415769   1.364455   2.252293
    16  C    3.697137   2.427243   1.404545   2.457419   2.881637
    17  C    4.138763   2.791051   2.415393   3.736262   4.260489
    18  Cl   5.887542   4.540355   4.024942   5.162077   5.370518
    19  C    3.619498   2.427850   2.805481   4.275631   5.099471
    20  C    2.334525   1.403348   2.423821   3.798609   4.870093
    21  H    0.971579   1.928735   2.520538   2.539632   3.764037
    22  H    5.775309   5.551951   4.428607   3.036246   2.113698
    23  H    5.999013   6.103617   5.281676   3.931216   3.386149
    24  H    6.812181   6.328788   5.079591   4.004305   2.831685
    25  H    5.124063   4.670552   3.709054   3.031205   2.546489
    26  H    6.173085   6.029954   5.244940   4.358211   3.876794
    27  H    3.085864   3.388740   3.583022   3.506389   4.233369
    28  H    4.456369   4.625054   3.959500   2.700338   2.789881
    29  H    4.667305   5.256609   4.931475   3.735056   3.941177
    30  H    4.479470   5.252706   5.108111   4.003312   4.442182
    31  H    5.731968   6.221365   5.699866   4.323585   4.240609
    32  H    4.583959   3.404030   2.148248   2.626243   2.533313
    33  H    4.483879   3.412709   3.891323   5.361246   6.161262
    34  H    2.517361   2.140693   3.397396   4.668458   5.815512
                    6          7          8          9         10
     6  C    0.000000
     7  C    1.549420   0.000000
     8  O    2.425043   1.419374   0.000000
     9  C    2.620762   1.542478   2.391963   0.000000
    10  C    3.247744   2.581777   3.767727   1.508617   0.000000
    11  O    3.791621   3.525893   4.657833   2.379242   1.338073
    12  O    3.866086   3.133504   4.358414   2.408654   1.214693
    13  C    1.540224   2.655606   3.807496   3.477090   3.444906
    14  C    2.642005   3.093324   4.322114   3.858046   3.524070
    15  O    2.320163   3.311357   4.553385   3.527407   3.120415
    16  C    4.316829   5.103804   5.709140   4.746420   4.857445
    17  C    5.687824   6.416904   7.008926   5.898211   5.874269
    18  Cl   6.842507   7.490799   7.807584   6.982771   7.208364
    19  C    6.414484   7.144091   7.928360   6.519731   6.173167
    20  C    5.987872   6.735801   7.722188   6.133422   5.520745
    21  H    4.125082   4.891313   6.192255   4.654792   3.740719
    22  H    1.094665   2.123680   2.422269   3.463564   4.275556
    23  H    2.164445   1.095736   2.009591   2.167952   2.810126
    24  H    2.552288   1.964512   0.973129   2.647796   4.086319
    25  H    2.859562   2.168215   2.677742   1.091389   2.144155
    26  H    3.510057   2.121560   2.525749   1.094025   2.097985
    27  H    4.491010   4.295703   5.513751   3.228646   1.898611
    28  H    2.147285   3.508560   4.445744   4.476304   4.525092
    29  H    2.935912   2.878776   4.197595   3.298061   2.741251
    30  H    3.551523   4.153158   5.401808   4.789214   4.216638
    31  H    2.920664   3.241343   4.220652   4.305855   4.244903
    32  H    4.000746   4.751497   5.110276   4.551711   4.997861
    33  H    7.493494   8.194646   8.947093   7.508134   7.137308
    34  H    6.826272   7.543733   8.613316   6.894125   6.096841
                   11         12         13         14         15
    11  O    0.000000
    12  O    2.240842   0.000000
    13  C    3.875566   3.742277   0.000000
    14  C    4.240212   3.304013   1.510801   0.000000
    15  O    3.036651   3.607922   1.453948   2.444199   0.000000
    16  C    4.021195   5.936500   4.673670   5.991506   3.676427
    17  C    4.841459   6.937236   5.954973   7.219016   4.827503
    18  Cl   6.243069   8.348099   7.357254   8.699541   6.382071
    19  C    4.985900   7.104907   6.390627   7.500662   5.077334
    20  C    4.331764   6.292334   5.677614   6.616083   4.263417
    21  H    3.119252   4.082173   3.197510   3.699150   1.846383
    22  H    4.871324   4.829081   2.164041   3.174649   3.198072
    23  H    3.977107   2.913791   2.774250   2.651427   3.663784
    24  H    4.737809   4.881465   4.073323   4.867422   4.638021
    25  H    2.422706   3.267680   3.885351   4.588794   3.697060
    26  H    3.087702   2.667035   4.403828   4.558412   4.572917
    27  H    0.980411   2.314804   4.275427   4.425622   3.319858
    28  H    4.849966   4.824159   1.097130   2.147829   2.041029
    29  H    3.620303   2.289791   2.170762   1.090818   2.730138
    30  H    4.738893   3.881500   2.145322   1.092236   2.711886
    31  H    5.129119   3.967384   2.135725   1.094357   3.381310
    32  H    4.388371   6.130532   4.676191   6.071635   3.975034
    33  H    5.901755   8.054883   7.469769   8.560420   6.142714
    34  H    4.881742   6.726637   6.347326   7.125987   4.902579
                   16         17         18         19         20
    16  C    0.000000
    17  C    1.380978   0.000000
    18  Cl   2.712839   1.749308   0.000000
    19  C    2.416749   1.397694   2.723744   0.000000
    20  C    2.781083   2.399513   4.008399   1.384670   0.000000
    21  H    3.907966   4.627038   6.359507   4.348738   3.171943
    22  H    4.929743   6.307973   7.306434   7.146409   6.816178
    23  H    6.037690   7.345250   8.509089   7.965132   7.415331
    24  H    5.150295   6.415110   7.059073   7.446404   7.397600
    25  H    3.976992   5.073328   6.014816   5.819985   5.637778
    26  H    5.708394   6.800189   7.773502   7.430351   7.081318
    27  H    4.567781   5.238323   6.738357   5.122280   4.269600
    28  H    4.926192   6.178781   7.527094   6.632992   5.961352
    29  H    6.104541   7.289651   8.780582   7.525357   6.620942
    30  H    6.384304   7.517116   9.088018   7.628169   6.611905
    31  H    6.770300   8.056208   9.449619   8.443140   7.624397
    32  H    1.085516   2.152279   2.868530   3.405919   3.866537
    33  H    3.398820   2.160069   2.867112   1.085851   2.149875
    34  H    3.866720   3.392812   4.876830   2.153337   1.085802
                   21         22         23         24         25
    21  H    0.000000
    22  H    5.038717   0.000000
    23  H    5.187113   2.593406   0.000000
    24  H    6.246433   2.501666   2.826877   0.000000
    25  H    4.735610   3.655898   3.068073   2.522293   0.000000
    26  H    5.637877   4.201121   2.447667   2.920464   1.779329
    27  H    2.902137   5.585299   4.580971   5.663073   3.392652
    28  H    3.626154   2.307648   3.636793   4.619199   4.775628
    29  H    3.747976   3.662701   2.325954   4.818609   4.166032
    30  H    3.519640   4.058452   3.730326   5.906778   5.472679
    31  H    4.767574   3.110157   2.582174   4.873611   5.097836
    32  H    4.628330   4.443578   5.767166   4.429344   3.700332
    33  H    5.293333   8.213295   9.024133   8.433968   6.773893
    34  H    3.476662   7.689341   8.134351   8.353263   6.487323
                   26         27         28         29         30
    26  H    0.000000
    27  H    3.843760   0.000000
    28  H    5.406775   5.222924   0.000000
    29  H    3.869073   3.750212   3.070775   0.000000
    30  H    5.518712   4.727094   2.446990   1.776511   0.000000
    31  H    4.857741   5.391283   2.490511   1.776746   1.767474
    32  H    5.458476   5.097619   4.894579   6.223455   6.606156
    33  H    8.376701   5.973430   7.692888   8.566603   8.652146
    34  H    7.810086   4.609048   6.628769   7.094203   6.985365
                   31         32         33         34
    31  H    0.000000
    32  H    6.712752   0.000000
    33  H    9.515338   4.302276   0.000000
    34  H    8.175153   4.952093   2.491856   0.000000
 Stoichiometry    C13H14ClNO5
 Framework group  C1[X(C13H14ClNO5)]
 Deg. of freedom    96
 Full point group                 C1      NOp   1
 Largest Abelian subgroup         C1      NOp   1
 Largest concise Abelian subgroup C1      NOp   1
                         Standard orientation:                         
 ---------------------------------------------------------------------
 Center     Atomic      Atomic             Coordinates (Angstroms)
 Number     Number       Type             X           Y           Z
 ---------------------------------------------------------------------
      1          8           0       -0.837703   -2.751893   -0.252994
      2          6           0       -1.634050   -1.661813   -0.199741
      3          6           0       -1.214741   -0.345054   -0.462690
      4          6           0        0.167801    0.003168   -0.827775
      5          7           0        0.648240    1.180948   -0.916081
      6          6           0        2.092042    1.018955   -1.156440
      7          6           0        2.896819    1.413984    0.107280
      8          8           0        3.152835    2.809941    0.087716
      9          6           0        2.235191    1.078755    1.459726
     10          6           0        2.093398   -0.390930    1.769319
     11          8           0        0.822474   -0.776383    1.932466
     12          8           0        3.031582   -1.150949    1.902219
     13          6           0        2.198522   -0.427871   -1.673785
     14          6           0        3.432455   -1.247163   -1.375973
     15          8           0        1.014704   -1.034745   -1.087062
     16          6           0       -2.137251    0.707979   -0.349356
     17          6           0       -3.446554    0.450599    0.006425
     18         17           0       -4.585357    1.772336    0.133771
     19          6           0       -3.875842   -0.854075    0.265434
     20          6           0       -2.969459   -1.895811    0.162633
     21          1           0        0.060344   -2.517886   -0.540601
     22          1           0        2.419964    1.708142   -1.941157
     23          1           0        3.882352    0.937688    0.057236
     24          1           0        2.308377    3.285089   -0.002312
     25          1           0        1.263078    1.570666    1.524144
     26          1           0        2.895682    1.492700    2.227379
     27          1           0        0.804787   -1.731733    2.152013
     28          1           0        2.013008   -0.412536   -2.755008
     29          1           0        3.611900   -1.344011   -0.304384
     30          1           0        3.331701   -2.244396   -1.809969
     31          1           0        4.300895   -0.766593   -1.836931
     32          1           0       -1.799371    1.720375   -0.547438
     33          1           0       -4.907363   -1.046878    0.544476
     34          1           0       -3.273081   -2.919077    0.361895
 ---------------------------------------------------------------------
 Rotational constants (GHZ):      0.5198065      0.1992443      0.1774841
 Standard basis: 6-311+G(2d,p) (5D, 7F)
 There are   632 symmetry adapted basis functions of A   symmetry.
 Integral buffers will be    131072 words long.
 Raffenetti 2 integral format.
 Two-electron integral symmetry is turned on.
   632 basis functions,   969 primitive gaussians,   672 cartesian basis functions
    78 alpha electrons       78 beta electrons
       nuclear repulsion energy      1772.6293652319 Hartrees.
 NAtoms=   34 NActive=   34 NUniq=   34 SFac= 1.00D+00 NAtFMM=   50 NAOKFM=F Big=F
 Using the following non-standard input for PCM:
 radii=bondi
 --- end of non-standard input.
 ------------------------------------------------------------------------------
 Polarizable Continuum Model (PCM)
 =================================
 Model                : PCM.
 Atomic radii         : Bondi.
 Polarization charges : Total charges.
 Charge compensation  : None.
 Solution method      : Matrix inversion.
 Cavity type          : Scaled VdW (van der Waals Surface) (Alpha=1.100).
 Cavity algorithm     : GePol (No added spheres)
                        Default sphere list used, NSphG=   34.
                        Lebedev-Laikov grids with approx.  5.0 points / Ang**2.
                        Smoothing algorithm: Karplus/York (Gamma=1.0000).
                        Polarization charges: spherical gaussians, with
                                              point-specific exponents (IZeta= 3).
                        Self-potential: point-specific (ISelfS= 7).
                        Self-field    : sphere-specific E.n sum rule (ISelfD= 2).
 Solvent              : Methanol, Eps=  32.613000 Eps(inf)=   1.765709
 ------------------------------------------------------------------------------
 One-electron integrals computed using PRISM.
 NBasis=   632 RedAO= T  NBF=   632
 NBsUse=   630 1.00D-06 NBFU=   630
 Initial guess read from the checkpoint file:  1b-conf-19.chk
 B after Tr=     0.000000    0.000000    0.000000
         Rot=    1.000000    0.000000    0.000000    0.000000 Ang=   0.00 deg.
 Initial guess orbital symmetries:
       Occupied  (A) (A) (A) (A) (A) (A) (A) (A) (A) (A) (A) (A)
                 (A) (A) (A) (A) (A) (A) (A) (A) (A) (A) (A) (A)
                 (A) (A) (A) (A) (A) (A) (A) (A) (A) (A) (A) (A)
                 (A) (A) (A) (A) (A) (A) (A) (A) (A) (A) (A) (A)
                 (A) (A) (A) (A) (A) (A) (A) (A) (A) (A) (A) (A)
                 (A) (A) (A) (A) (A) (A) (A) (A) (A) (A) (A) (A)
                 (A) (A) (A) (A) (A) (A)
       Virtual   (A) (A) (A) (A) (A) (A) (A) (A) (A) (A) (A) (A)
                 (A) (A) (A) (A) (A) (A) (A) (A) (A) (A) (A) (A)
                 (A) (A) (A) (A) (A) (A) (A) (A) (A) (A) (A) (A)
                 (A) (A) (A) (A) (A) (A) (A) (A) (A) (A) (A) (A)
                 (A) (A) (A) (A) (A) (A) (A) (A) (A) (A) (A) (A)
                 (A) (A) (A) (A) (A) (A) (A) (A) (A) (A) (A) (A)
                 (A) (A) (A) (A) (A) (A) (A) (A) (A) (A) (A) (A)
                 (A) (A) (A) (A) (A) (A) (A) (A) (A) (A) (A) (A)
                 (A) (A) (A) (A) (A) (A) (A) (A) (A) (A) (A) (A)
                 (A) (A) (A) (A) (A) (A) (A) (A) (A) (A) (A) (A)
                 (A) (A) (A) (A) (A) (A) (A) (A) (A) (A) (A) (A)
                 (A) (A) (A) (A) (A) (A) (A) (A) (A) (A) (A) (A)
                 (A) (A) (A) (A) (A) (A) (A) (A) (A) (A) (A) (A)
                 (A) (A) (A) (A) (A) (A) (A) (A) (A) (A) (A) (A)
                 (A) (A) (A) (A) (A) (A) (A) (A) (A) (A) (A) (A)
                 (A) (A) (A) (A) (A) (A) (A) (A) (A) (A) (A) (A)
                 (A) (A) (A) (A) (A) (A) (A) (A) (A) (A) (A) (A)
                 (A) (A) (A) (A) (A) (A) (A) (A) (A) (A) (A) (A)
                 (A) (A) (A) (A) (A) (A) (A) (A) (A) (A) (A) (A)
                 (A) (A) (A) (A) (A) (A) (A) (A) (A) (A) (A) (A)
                 (A) (A) (A) (A) (A) (A) (A) (A) (A) (A) (A) (A)
                 (A) (A) (A) (A) (A) (A) (A) (A) (A) (A) (A) (A)
                 (A) (A) (A) (A) (A) (A) (A) (A) (A) (A) (A) (A)
                 (A) (A) (A) (A) (A) (A) (A) (A) (A) (A) (A) (A)
                 (A) (A) (A) (A) (A) (A) (A) (A) (A) (A) (A) (A)
                 (A) (A) (A) (A) (A) (A) (A) (A) (A) (A) (A) (A)
                 (A) (A) (A) (A) (A) (A) (A) (A) (A) (A) (A) (A)
                 (A) (A) (A) (A) (A) (A) (A) (A) (A) (A) (A) (A)
                 (A) (A) (A) (A) (A) (A) (A) (A) (A) (A) (A) (A)
                 (A) (A) (A) (A) (A) (A) (A) (A) (A) (A) (A) (A)
                 (A) (A) (A) (A) (A) (A) (A) (A) (A) (A) (A) (A)
                 (A) (A) (A) (A) (A) (A) (A) (A) (A) (A) (A) (A)
                 (A) (A) (A) (A) (A) (A) (A) (A) (A) (A) (A) (A)
                 (A) (A) (A) (A) (A) (A) (A) (A) (A) (A) (A) (A)
                 (A) (A) (A) (A) (A) (A) (A) (A) (A) (A) (A) (A)
                 (A) (A) (A) (A) (A) (A) (A) (A) (A) (A) (A) (A)
                 (A) (A) (A) (A) (A) (A) (A) (A) (A) (A) (A) (A)
                 (A) (A) (A) (A) (A) (A) (A) (A) (A) (A) (A) (A)
                 (A) (A) (A) (A) (A) (A) (A) (A) (A) (A) (A) (A)
                 (A) (A) (A) (A) (A) (A) (A) (A) (A) (A) (A) (A)
                 (A) (A) (A) (A) (A) (A) (A) (A) (A) (A) (A) (A)
                 (A) (A) (A) (A) (A) (A) (A) (A) (A) (A) (A) (A)
                 (A) (A) (A) (A) (A) (A) (A) (A) (A) (A) (A) (A)
                 (A) (A) (A) (A) (A) (A) (A) (A) (A) (A) (A) (A)
                 (A) (A) (A) (A) (A) (A) (A) (A) (A) (A) (A) (A)
                 (A) (A) (A) (A) (A) (A) (A) (A) (A) (A) (A) (A)
 Requested convergence on RMS density matrix=1.00D-08 within 128 cycles.
 Requested convergence on MAX density matrix=1.00D-06.
 Requested convergence on             energy=1.00D-06.
 No special actions if energy rises.
 Error on total polarization charges =  0.05028
 SCF Done:  E(RB3LYP) =  -1395.23984684     A.U. after   13 cycles
             Convg  =    0.4610D-08             -V/T =  2.0034
 Range of M.O.s used for correlation:     1   630
 NBasis=   632 NAE=    78 NBE=    78 NFC=     0 NFV=     0
 NROrb=    630 NOA=    78 NOB=    78 NVA=   552 NVB=   552

 **** Warning!!: The largest alpha MO coefficient is  0.12668475D+03

 NEqPCM:  Using equilibrium solvation (IEInf=0, Eps=  32.6130, EpsInf=   1.7657)
          Differentiating once with respect to magnetic field using GIAOs.
          Electric field/nuclear overlap derivatives assumed to be zero.
 FoFCou: FMM=F IPFlag=           0 FMFlag=    10101102 FMFlg1=           0
         NFxFlg=    40000000 DoJE=F BraDBF=F KetDBF=T FulRan=T
         Omega=  0.000000  0.000000  1.000000  0.000000  0.000000 ICntrl=    6100 IOpCl=  0
         NMat0=    1 NMatS0=    1 NMatT0=    0 NMatD0=    1 NMtDS0=    0 NMtDT0=    0
         I1Cent=           7 NGrid=        2442.
 Symmetry not used in FoFCou.
          There are     3 degrees of freedom in the 1st order CPHF.  IDoFFX=0.
      3 vectors produced by pass  0 Test12= 1.44D-12 3.33D-08 XBig12= 4.57D+02 9.07D+00.
 AX will form     3 AO Fock derivatives at one time.
      3 vectors produced by pass  1 Test12= 1.44D-12 3.33D-08 XBig12= 9.03D-01 2.45D-01.
      3 vectors produced by pass  2 Test12= 1.44D-12 3.33D-08 XBig12= 3.60D-03 2.73D-02.
      3 vectors produced by pass  3 Test12= 1.44D-12 3.33D-08 XBig12= 1.32D-05 1.17D-03.
      3 vectors produced by pass  4 Test12= 1.44D-12 3.33D-08 XBig12= 3.79D-08 4.91D-05.
      3 vectors produced by pass  5 Test12= 1.44D-12 3.33D-08 XBig12= 1.43D-10 2.93D-06.
      3 vectors produced by pass  6 Test12= 1.44D-12 3.33D-08 XBig12= 4.56D-13 1.73D-07.
 Inverted reduced A of dimension    21 with in-core refinement.
 Calculating GIAO nuclear magnetic shielding tensors.
 SCF GIAO Magnetic shielding tensor (ppm):
  1  O    Isotropic =   200.7768   Anisotropy =    91.6643
   XX=   162.2251   YX=   -22.8256   ZX=    30.5585
   XY=   -27.1921   YY=   187.2411   ZY=    15.7399
   XZ=    22.3378   YZ=    20.9405   ZZ=   252.8641
   Eigenvalues:   137.7906   202.6534   261.8863
  2  C    Isotropic =    18.9156   Anisotropy =   144.2510
   XX=   -16.6027   YX=    38.3250   ZX=    28.7745
   XY=    29.1086   YY=   -32.8339   ZY=    12.8702
   XZ=    29.6264   YZ=     8.9300   ZZ=   106.1833
   Eigenvalues:   -59.9868     1.6507   115.0829
  3  C    Isotropic =    62.8618   Anisotropy =   138.9001
   XX=     6.2396   YX=   -10.2061   ZX=    39.0685
   XY=     3.9848   YY=    37.8343   ZY=    11.9417
   XZ=    35.2430   YZ=    17.8713   ZZ=   144.5115
   Eigenvalues:    -4.1965    37.3200   155.4619
  4  C    Isotropic =     9.5399   Anisotropy =    76.3226
   XX=   -43.1869   YX=    49.4438   ZX=    31.3154
   XY=    52.1686   YY=    23.8719   ZY=   -16.6144
   XZ=    31.9702   YZ=   -25.8812   ZZ=    47.9348
   Eigenvalues:   -81.6439    49.8421    60.4217
  5  N    Isotropic =    13.1549   Anisotropy =   279.6493
   XX=  -137.8390   YX=     3.6397   ZX=    68.3403
   XY=   -24.3826   YY=    -2.7713   ZY=     3.1784
   XZ=    93.7889   YZ=    -3.7104   ZZ=   180.0749
   Eigenvalues:  -157.9636    -2.1596   199.5878
  6  C    Isotropic =   104.2204   Anisotropy =    21.6459
   XX=   117.1415   YX=    11.7855   ZX=     1.3146
   XY=    -8.1280   YY=   104.2466   ZY=     0.9378
   XZ=     7.7617   YZ=    13.9449   ZZ=    91.2732
   Eigenvalues:    87.4960   106.5142   118.6510
  7  C    Isotropic =   107.1523   Anisotropy =    48.8922
   XX=    87.8808   YX=    14.0926   ZX=     0.9198
   XY=    15.2944   YY=   135.5819   ZY=     0.6419
   XZ=     0.3916   YZ=    -0.3675   ZZ=    97.9941
   Eigenvalues:    83.6933    98.0164   139.7470
  8  O    Isotropic =   255.9662   Anisotropy =    48.2515
   XX=   224.5476   YX=    12.5748   ZX=     3.2907
   XY=    23.3014   YY=   278.1210   ZY=   -10.3583
   XZ=    14.0522   YZ=   -15.2777   ZZ=   265.2300
   Eigenvalues:   216.0687   263.6961   288.1338
  9  C    Isotropic =   140.5656   Anisotropy =    41.7307
   XX=   118.4562   YX=     9.8513   ZX=    -8.0515
   XY=     5.2827   YY=   164.3975   ZY=    -3.5931
   XZ=    -6.4558   YZ=   -12.2039   ZZ=   138.8431
   Eigenvalues:   115.6258   137.6850   168.3861
 10  C    Isotropic =     0.9794   Anisotropy =   112.5826
   XX=   -43.3636   YX=   -69.2723   ZX=    23.4865
   XY=   -41.6369   YY=   -22.4406   ZY=    25.5822
   XZ=    18.5355   YZ=    26.2705   ZZ=    68.7425
   Eigenvalues:   -95.8543    22.7580    76.0345
 11  O    Isotropic =    99.1810   Anisotropy =   185.6928
   XX=   173.4474   YX=   159.1484   ZX=   -40.9119
   XY=    52.0501   YY=   -10.9831   ZY=    28.1123
   XZ=    -9.7839   YZ=    28.5788   ZZ=   135.0789
   Eigenvalues:   -65.5436   140.1105   222.9763
 12  O    Isotropic =   -70.4468   Anisotropy =   511.5664
   XX=  -290.1026   YX=    12.5419   ZX=    29.8865
   XY=    -1.8850   YY=  -165.2847   ZY=    99.8128
   XZ=    28.7824   YZ=   108.4616   ZZ=   244.0469
   Eigenvalues:  -291.7101  -190.2278   270.5975
 13  C    Isotropic =    97.8702   Anisotropy =    73.8852
   XX=   121.0721   YX=    23.6390   ZX=   -22.3131
   XY=    20.0107   YY=   102.3676   ZY=   -16.0320
   XZ=   -34.3583   YZ=    -6.4025   ZZ=    70.1708
   Eigenvalues:    57.4844    88.9991   147.1269
 14  C    Isotropic =   168.5551   Anisotropy =    18.3253
   XX=   174.6350   YX=    -7.3634   ZX=     0.2502
   XY=   -11.8055   YY=   164.6321   ZY=    -5.2592
   XZ=    -0.0284   YZ=    -2.6011   ZZ=   166.3982
   Eigenvalues:   157.5596   167.3337   180.7720
 15  O    Isotropic =   121.0179   Anisotropy =   145.5141
   XX=   100.8125   YX=  -114.7327   ZX=    23.6474
   XY=   -80.9388   YY=   136.3224   ZY=    46.6846
   XZ=    -2.3219   YZ=   -24.8696   ZZ=   125.9187
   Eigenvalues:    17.0187   128.0076   218.0273
 16  C    Isotropic =    47.5839   Anisotropy =   154.8477
   XX=    42.3960   YX=   -14.8823   ZX=    29.5171
   XY=   -11.8205   YY=   -40.8167   ZY=    25.2932
   XZ=    26.3939   YZ=    24.6099   ZZ=   141.1725
   Eigenvalues:   -47.5055    39.4415   150.8158
 17  C    Isotropic =    46.6170   Anisotropy =   100.8087
   XX=    28.2900   YX=    57.8504   ZX=    14.9242
   XY=    55.9079   YY=     1.4180   ZY=    -0.8372
   XZ=    14.9165   YZ=    -1.0823   ZZ=   110.1431
   Eigenvalues:   -44.2442    70.2724   113.8229
 18  Cl   Isotropic =   709.6390   Anisotropy =   494.9283
   XX=   743.7592   YX=  -248.7111   ZX=   -16.0045
   XY=  -251.3053   YY=   823.8172   ZY=    30.6562
   XZ=   -18.3302   YZ=    32.9263   ZZ=   561.3406
   Eigenvalues:   528.7008   560.6250  1039.5912
 19  C    Isotropic =    42.7121   Anisotropy =   162.2263
   XX=   -38.0193   YX=   -15.2917   ZX=    49.1716
   XY=   -14.5387   YY=    29.8067   ZY=    17.8032
   XZ=    49.5619   YZ=    17.7919   ZZ=   136.3488
   Eigenvalues:   -55.2929    32.5662   150.8629
 20  C    Isotropic =    57.9857   Anisotropy =   147.4842
   XX=    46.4786   YX=   -17.0357   ZX=    30.0688
   XY=   -16.7428   YY=   -18.1008   ZY=    25.2021
   XZ=    29.9851   YZ=    25.6473   ZZ=   145.5794
   Eigenvalues:   -28.3223    45.9710   156.3085
 21  H    Isotropic =    23.8399   Anisotropy =    19.6219
   XX=    32.4509   YX=     6.1652   ZX=    -6.1745
   XY=     4.1364   YY=    24.8361   ZY=    -1.7992
   XZ=    -6.0247   YZ=    -2.9434   ZZ=    14.2327
   Eigenvalues:    12.3254    22.2731    36.9212
 22  H    Isotropic =    27.4116   Anisotropy =     4.4547
   XX=    25.6175   YX=     2.1217   ZX=    -0.5583
   XY=     0.8671   YY=    28.1876   ZY=    -0.7958
   XZ=    -1.3895   YZ=    -2.0707   ZZ=    28.4295
   Eigenvalues:    24.9021    26.9513    30.3813
 23  H    Isotropic =    27.3878   Anisotropy =     4.2192
   XX=    28.2944   YX=    -0.0788   ZX=     0.2450
   XY=    -1.1447   YY=    29.7632   ZY=     1.5005
   XZ=     0.0882   YZ=     1.0276   ZZ=    24.1057
   Eigenvalues:    23.8171    28.1457    30.2005
 24  H    Isotropic =    29.6132   Anisotropy =    13.8709
   XX=    32.5671   YX=    -4.6726   ZX=     1.1860
   XY=    -5.4909   YY=    34.5281   ZY=    -1.0767
   XZ=     2.3547   YZ=     0.0345   ZZ=    21.7445
   Eigenvalues:    21.4547    28.5245    38.8605
 25  H    Isotropic =    29.1667   Anisotropy =     1.7457
   XX=    30.2611   YX=     0.9819   ZX=    -0.4620
   XY=    -1.3259   YY=    28.7515   ZY=     0.5802
   XZ=     0.2753   YZ=     1.7700   ZZ=    28.4874
   Eigenvalues:    27.4362    29.7333    30.3304
 26  H    Isotropic =    29.1626   Anisotropy =     6.7403
   XX=    27.0708   YX=     0.5288   ZX=     1.9396
   XY=     2.6789   YY=    29.0015   ZY=     1.5068
   XZ=     3.3332   YZ=     1.7051   ZZ=    31.4156
   Eigenvalues:    25.6133    28.2184    33.6562
 27  H    Isotropic =    24.9831   Anisotropy =     9.4411
   XX=    22.5914   YX=     6.3850   ZX=    -0.6339
   XY=     2.5371   YY=    27.7676   ZY=    -2.6009
   XZ=     1.6161   YZ=    -3.6003   ZZ=    24.5904
   Eigenvalues:    19.2172    24.4550    31.2772
 28  H    Isotropic =    26.8542   Anisotropy =     6.5188
   XX=    25.4401   YX=     0.7915   ZX=    -0.6936
   XY=     0.0272   YY=    24.2770   ZY=    -0.6134
   XZ=    -2.1638   YZ=     0.7154   ZZ=    30.8453
   Eigenvalues:    24.1056    25.2569    31.2000
 29  H    Isotropic =    30.2478   Anisotropy =     7.6333
   XX=    27.9004   YX=    -2.0949   ZX=     1.0976
   XY=    -2.9943   YY=    27.6044   ZY=    -0.1157
   XZ=     0.4159   YZ=    -0.1272   ZZ=    35.2385
   Eigenvalues:    25.1849    30.2218    35.3366
 30  H    Isotropic =    30.2224   Anisotropy =     9.8744
   XX=    28.5203   YX=    -2.2129   ZX=    -0.9384
   XY=    -1.7672   YY=    34.4404   ZY=     4.0666
   XZ=    -0.8488   YZ=     3.7472   ZZ=    27.7066
   Eigenvalues:    25.9158    27.9461    36.8054
 31  H    Isotropic =    30.4553   Anisotropy =     9.9625
   XX=    34.9898   YX=     0.6990   ZX=    -4.1396
   XY=     0.4334   YY=    28.2119   ZY=     0.1432
   XZ=    -4.4526   YZ=    -0.2993   ZZ=    28.1640
   Eigenvalues:    26.0755    28.1933    37.0969
 32  H    Isotropic =    23.2871   Anisotropy =    11.9570
   XX=    30.5164   YX=    -1.9489   ZX=    -2.1334
   XY=    -2.5199   YY=    20.9099   ZY=     0.1197
   XZ=    -1.5660   YZ=    -0.3518   ZZ=    18.4351
   Eigenvalues:    18.0774    20.5255    31.2585
 33  H    Isotropic =    24.0521   Anisotropy =     7.0330
   XX=    23.2820   YX=    -1.2194   ZX=    -0.4402
   XY=    -0.4595   YY=    28.5582   ZY=    -0.8220
   XZ=    -0.4744   YZ=    -0.6583   ZZ=    20.3162
   Eigenvalues:    20.1581    23.2575    28.7408
 34  H    Isotropic =    24.5819   Anisotropy =     5.7863
   XX=    28.0030   YX=    -0.5870   ZX=    -1.3271
   XY=    -1.2320   YY=    24.4613   ZY=     0.0934
   XZ=    -1.2245   YZ=    -0.0682   ZZ=    21.2812
   Eigenvalues:    21.0402    24.2659    28.4394
 End of Minotr Frequency-dependent properties file   721 does not exist.
 End of Minotr Frequency-dependent properties file   722 does not exist.

 **********************************************************************

            Population analysis using the SCF density.

 **********************************************************************

 Orbital symmetries:
       Occupied  (A) (A) (A) (A) (A) (A) (A) (A) (A) (A) (A) (A)
                 (A) (A) (A) (A) (A) (A) (A) (A) (A) (A) (A) (A)
                 (A) (A) (A) (A) (A) (A) (A) (A) (A) (A) (A) (A)
                 (A) (A) (A) (A) (A) (A) (A) (A) (A) (A) (A) (A)
                 (A) (A) (A) (A) (A) (A) (A) (A) (A) (A) (A) (A)
                 (A) (A) (A) (A) (A) (A) (A) (A) (A) (A) (A) (A)
                 (A) (A) (A) (A) (A) (A)
       Virtual   (A) (A) (A) (A) (A) (A) (A) (A) (A) (A) (A) (A)
                 (A) (A) (A) (A) (A) (A) (A) (A) (A) (A) (A) (A)
                 (A) (A) (A) (A) (A) (A) (A) (A) (A) (A) (A) (A)
                 (A) (A) (A) (A) (A) (A) (A) (A) (A) (A) (A) (A)
                 (A) (A) (A) (A) (A) (A) (A) (A) (A) (A) (A) (A)
                 (A) (A) (A) (A) (A) (A) (A) (A) (A) (A) (A) (A)
                 (A) (A) (A) (A) (A) (A) (A) (A) (A) (A) (A) (A)
                 (A) (A) (A) (A) (A) (A) (A) (A) (A) (A) (A) (A)
                 (A) (A) (A) (A) (A) (A) (A) (A) (A) (A) (A) (A)
                 (A) (A) (A) (A) (A) (A) (A) (A) (A) (A) (A) (A)
                 (A) (A) (A) (A) (A) (A) (A) (A) (A) (A) (A) (A)
                 (A) (A) (A) (A) (A) (A) (A) (A) (A) (A) (A) (A)
                 (A) (A) (A) (A) (A) (A) (A) (A) (A) (A) (A) (A)
                 (A) (A) (A) (A) (A) (A) (A) (A) (A) (A) (A) (A)
                 (A) (A) (A) (A) (A) (A) (A) (A) (A) (A) (A) (A)
                 (A) (A) (A) (A) (A) (A) (A) (A) (A) (A) (A) (A)
                 (A) (A) (A) (A) (A) (A) (A) (A) (A) (A) (A) (A)
                 (A) (A) (A) (A) (A) (A) (A) (A) (A) (A) (A) (A)
                 (A) (A) (A) (A) (A) (A) (A) (A) (A) (A) (A) (A)
                 (A) (A) (A) (A) (A) (A) (A) (A) (A) (A) (A) (A)
                 (A) (A) (A) (A) (A) (A) (A) (A) (A) (A) (A) (A)
                 (A) (A) (A) (A) (A) (A) (A) (A) (A) (A) (A) (A)
                 (A) (A) (A) (A) (A) (A) (A) (A) (A) (A) (A) (A)
                 (A) (A) (A) (A) (A) (A) (A) (A) (A) (A) (A) (A)
                 (A) (A) (A) (A) (A) (A) (A) (A) (A) (A) (A) (A)
                 (A) (A) (A) (A) (A) (A) (A) (A) (A) (A) (A) (A)
                 (A) (A) (A) (A) (A) (A) (A) (A) (A) (A) (A) (A)
                 (A) (A) (A) (A) (A) (A) (A) (A) (A) (A) (A) (A)
                 (A) (A) (A) (A) (A) (A) (A) (A) (A) (A) (A) (A)
                 (A) (A) (A) (A) (A) (A) (A) (A) (A) (A) (A) (A)
                 (A) (A) (A) (A) (A) (A) (A) (A) (A) (A) (A) (A)
                 (A) (A) (A) (A) (A) (A) (A) (A) (A) (A) (A) (A)
                 (A) (A) (A) (A) (A) (A) (A) (A) (A) (A) (A) (A)
                 (A) (A) (A) (A) (A) (A) (A) (A) (A) (A) (A) (A)
                 (A) (A) (A) (A) (A) (A) (A) (A) (A) (A) (A) (A)
                 (A) (A) (A) (A) (A) (A) (A) (A) (A) (A) (A) (A)
                 (A) (A) (A) (A) (A) (A) (A) (A) (A) (A) (A) (A)
                 (A) (A) (A) (A) (A) (A) (A) (A) (A) (A) (A) (A)
                 (A) (A) (A) (A) (A) (A) (A) (A) (A) (A) (A) (A)
                 (A) (A) (A) (A) (A) (A) (A) (A) (A) (A) (A) (A)
                 (A) (A) (A) (A) (A) (A) (A) (A) (A) (A) (A) (A)
                 (A) (A) (A) (A) (A) (A) (A) (A) (A) (A) (A) (A)
                 (A) (A) (A) (A) (A) (A) (A) (A) (A) (A) (A) (A)
                 (A) (A) (A) (A) (A) (A) (A) (A) (A) (A) (A) (A)
                 (A) (A) (A) (A) (A) (A) (A) (A) (A) (A) (A) (A)
                 (A) (A) (A) (A) (A) (A) (A) (A) (A) (A) (A) (A)
 The electronic state is 1-A.
 Alpha  occ. eigenvalues -- -101.55979 -19.18263 -19.17790 -19.16301 -19.13637
 Alpha  occ. eigenvalues --  -19.12765 -14.30769 -10.32045 -10.28250 -10.25843
 Alpha  occ. eigenvalues --  -10.24041 -10.23949 -10.23848 -10.21245 -10.20669
 Alpha  occ. eigenvalues --  -10.19676 -10.19670 -10.18669 -10.18607 -10.16418
 Alpha  occ. eigenvalues --   -9.47429  -7.23864  -7.22925  -7.22898  -1.12456
 Alpha  occ. eigenvalues --   -1.11336  -1.07690  -1.04045  -1.03376  -0.92504
 Alpha  occ. eigenvalues --   -0.90115  -0.85054  -0.81741  -0.78492  -0.77217
 Alpha  occ. eigenvalues --   -0.74229  -0.71328  -0.68317  -0.65047  -0.62428
 Alpha  occ. eigenvalues --   -0.61949  -0.60058  -0.59108  -0.55877  -0.53403
 Alpha  occ. eigenvalues --   -0.52037  -0.51712  -0.50785  -0.50427  -0.48274
 Alpha  occ. eigenvalues --   -0.47513  -0.47005  -0.46104  -0.45755  -0.44711
 Alpha  occ. eigenvalues --   -0.43653  -0.43457  -0.41870  -0.41516  -0.40839
 Alpha  occ. eigenvalues --   -0.40396  -0.40087  -0.39029  -0.38791  -0.38644
 Alpha  occ. eigenvalues --   -0.36931  -0.36793  -0.35386  -0.34418  -0.33659
 Alpha  occ. eigenvalues --   -0.32578  -0.32389  -0.30956  -0.29656  -0.29502
 Alpha  occ. eigenvalues --   -0.28430  -0.25867  -0.23575
 Alpha virt. eigenvalues --   -0.06116  -0.02190  -0.01968  -0.00063   0.00851
 Alpha virt. eigenvalues --    0.01318   0.01398   0.01709   0.02583   0.03073
 Alpha virt. eigenvalues --    0.03497   0.03996   0.04425   0.04718   0.05317
 Alpha virt. eigenvalues --    0.05662   0.06242   0.06822   0.07112   0.07846
 Alpha virt. eigenvalues --    0.07994   0.08342   0.08667   0.09342   0.09632
 Alpha virt. eigenvalues --    0.09756   0.10047   0.10575   0.11404   0.11483
 Alpha virt. eigenvalues --    0.12489   0.12603   0.12715   0.13166   0.13717
 Alpha virt. eigenvalues --    0.14080   0.14105   0.14412   0.14849   0.14992
 Alpha virt. eigenvalues --    0.15126   0.15352   0.15624   0.16295   0.16719
 Alpha virt. eigenvalues --    0.17113   0.17290   0.17661   0.18263   0.18583
 Alpha virt. eigenvalues --    0.18888   0.18966   0.19299   0.19530   0.19946
 Alpha virt. eigenvalues --    0.20054   0.20456   0.20765   0.21134   0.21362
 Alpha virt. eigenvalues --    0.22011   0.22208   0.22520   0.22532   0.22914
 Alpha virt. eigenvalues --    0.23544   0.23876   0.24455   0.24691   0.24829
 Alpha virt. eigenvalues --    0.25167   0.25568   0.25932   0.26379   0.26952
 Alpha virt. eigenvalues --    0.27132   0.27563   0.27890   0.28238   0.28617
 Alpha virt. eigenvalues --    0.28785   0.29116   0.29588   0.30146   0.30349
 Alpha virt. eigenvalues --    0.30910   0.31232   0.31598   0.32010   0.32488
 Alpha virt. eigenvalues --    0.32880   0.33077   0.33403   0.33943   0.34403
 Alpha virt. eigenvalues --    0.34525   0.35015   0.35631   0.36371   0.36616
 Alpha virt. eigenvalues --    0.36742   0.37322   0.37932   0.38514   0.38559
 Alpha virt. eigenvalues --    0.39530   0.39930   0.40699   0.41756   0.42317
 Alpha virt. eigenvalues --    0.42737   0.43679   0.44048   0.44853   0.45586
 Alpha virt. eigenvalues --    0.45894   0.46363   0.46869   0.47121   0.47735
 Alpha virt. eigenvalues --    0.48500   0.49259   0.49755   0.50384   0.50661
 Alpha virt. eigenvalues --    0.52578   0.52761   0.53066   0.53594   0.53773
 Alpha virt. eigenvalues --    0.54005   0.54925   0.55130   0.55493   0.56446
 Alpha virt. eigenvalues --    0.56479   0.57470   0.58380   0.59631   0.60469
 Alpha virt. eigenvalues --    0.60746   0.60994   0.61166   0.61650   0.63039
 Alpha virt. eigenvalues --    0.63605   0.64175   0.64578   0.65096   0.65436
 Alpha virt. eigenvalues --    0.66022   0.66758   0.67318   0.67464   0.68416
 Alpha virt. eigenvalues --    0.69245   0.70068   0.70241   0.70581   0.70972
 Alpha virt. eigenvalues --    0.71346   0.71720   0.72579   0.73154   0.74007
 Alpha virt. eigenvalues --    0.74570   0.75009   0.75272   0.75906   0.76909
 Alpha virt. eigenvalues --    0.77187   0.77765   0.78377   0.79134   0.79441
 Alpha virt. eigenvalues --    0.80394   0.80805   0.81037   0.81625   0.82519
 Alpha virt. eigenvalues --    0.83083   0.83954   0.84966   0.85467   0.86189
 Alpha virt. eigenvalues --    0.87264   0.87943   0.89281   0.90234   0.90775
 Alpha virt. eigenvalues --    0.91128   0.92487   0.93420   0.93659   0.94319
 Alpha virt. eigenvalues --    0.95513   0.96326   0.96543   0.98165   0.98776
 Alpha virt. eigenvalues --    1.00161   1.01965   1.02410   1.03033   1.03515
 Alpha virt. eigenvalues --    1.04342   1.05838   1.07215   1.07519   1.07953
 Alpha virt. eigenvalues --    1.09614   1.09854   1.10658   1.11158   1.12200
 Alpha virt. eigenvalues --    1.12842   1.13711   1.14199   1.14877   1.15875
 Alpha virt. eigenvalues --    1.16412   1.16787   1.17323   1.17867   1.18918
 Alpha virt. eigenvalues --    1.19568   1.20267   1.20873   1.21743   1.22033
 Alpha virt. eigenvalues --    1.23216   1.23750   1.24189   1.25138   1.26004
 Alpha virt. eigenvalues --    1.26590   1.28292   1.28953   1.29329   1.30735
 Alpha virt. eigenvalues --    1.31842   1.31991   1.32305   1.32776   1.34461
 Alpha virt. eigenvalues --    1.35293   1.36145   1.36697   1.37268   1.38339
 Alpha virt. eigenvalues --    1.38587   1.39083   1.40597   1.41256   1.41930
 Alpha virt. eigenvalues --    1.43144   1.43694   1.44189   1.45090   1.46199
 Alpha virt. eigenvalues --    1.48365   1.49907   1.50639   1.52050   1.52888
 Alpha virt. eigenvalues --    1.54431   1.56073   1.56458   1.57004   1.59157
 Alpha virt. eigenvalues --    1.60783   1.61683   1.62309   1.62943   1.64251
 Alpha virt. eigenvalues --    1.64881   1.65671   1.67328   1.67573   1.69794
 Alpha virt. eigenvalues --    1.71682   1.72370   1.73361   1.73665   1.74931
 Alpha virt. eigenvalues --    1.75918   1.76616   1.77037   1.79817   1.80198
 Alpha virt. eigenvalues --    1.82327   1.83390   1.83971   1.85016   1.88044
 Alpha virt. eigenvalues --    1.89389   1.91214   1.92385   1.93844   1.94004
 Alpha virt. eigenvalues --    1.96080   1.96277   1.97613   1.99014   2.02670
 Alpha virt. eigenvalues --    2.03108   2.04607   2.07517   2.08459   2.08962
 Alpha virt. eigenvalues --    2.09422   2.11589   2.13128   2.13708   2.15712
 Alpha virt. eigenvalues --    2.16489   2.18562   2.19379   2.21312   2.22810
 Alpha virt. eigenvalues --    2.23252   2.24397   2.25534   2.26742   2.28521
 Alpha virt. eigenvalues --    2.29094   2.31106   2.32218   2.32719   2.34854
 Alpha virt. eigenvalues --    2.36621   2.37154   2.37615   2.38925   2.40271
 Alpha virt. eigenvalues --    2.40949   2.41298   2.43316   2.44037   2.44818
 Alpha virt. eigenvalues --    2.46372   2.48821   2.49377   2.49775   2.51329
 Alpha virt. eigenvalues --    2.51673   2.55252   2.56016   2.58864   2.60365
 Alpha virt. eigenvalues --    2.62731   2.63688   2.64160   2.65047   2.65759
 Alpha virt. eigenvalues --    2.66309   2.68139   2.69532   2.70491   2.72432
 Alpha virt. eigenvalues --    2.75064   2.75645   2.78071   2.80537   2.81031
 Alpha virt. eigenvalues --    2.81888   2.84473   2.84950   2.85900   2.86063
 Alpha virt. eigenvalues --    2.87716   2.87898   2.90329   2.90763   2.91270
 Alpha virt. eigenvalues --    2.94837   2.97669   2.99349   3.00700   3.01426
 Alpha virt. eigenvalues --    3.02874   3.05758   3.06550   3.07229   3.08430
 Alpha virt. eigenvalues --    3.10887   3.11442   3.12797   3.14941   3.16482
 Alpha virt. eigenvalues --    3.19000   3.20336   3.21661   3.24962   3.26624
 Alpha virt. eigenvalues --    3.27798   3.28959   3.29449   3.32728   3.35398
 Alpha virt. eigenvalues --    3.35644   3.36265   3.36616   3.37738   3.39702
 Alpha virt. eigenvalues --    3.41175   3.41828   3.43391   3.44073   3.44936
 Alpha virt. eigenvalues --    3.45166   3.46788   3.48135   3.49966   3.50968
 Alpha virt. eigenvalues --    3.52135   3.52517   3.53467   3.53882   3.54752
 Alpha virt. eigenvalues --    3.55339   3.57237   3.57269   3.58912   3.59108
 Alpha virt. eigenvalues --    3.59951   3.60733   3.61928   3.63132   3.64182
 Alpha virt. eigenvalues --    3.65746   3.66419   3.67367   3.68231   3.68944
 Alpha virt. eigenvalues --    3.70330   3.70899   3.71871   3.72249   3.73516
 Alpha virt. eigenvalues --    3.74671   3.75953   3.77278   3.78804   3.80401
 Alpha virt. eigenvalues --    3.81471   3.82386   3.82916   3.83758   3.86965
 Alpha virt. eigenvalues --    3.87274   3.88981   3.91500   3.92303   3.94084
 Alpha virt. eigenvalues --    3.96359   3.97446   4.00111   4.02881   4.04662
 Alpha virt. eigenvalues --    4.07255   4.11672   4.12489   4.16138   4.17126
 Alpha virt. eigenvalues --    4.21502   4.23466   4.25461   4.27653   4.29202
 Alpha virt. eigenvalues --    4.37079   4.38380   4.40316   4.43896   4.47095
 Alpha virt. eigenvalues --    4.54673   4.58404   4.59171   4.73095   4.77558
 Alpha virt. eigenvalues --    4.83188   5.03450   5.07365   5.09987   5.11920
 Alpha virt. eigenvalues --    5.13077   5.16856   5.17746   5.22926   5.25276
 Alpha virt. eigenvalues --    5.25715   5.27940   5.42148   5.46338   5.49570
 Alpha virt. eigenvalues --    5.55878   5.61691   5.64700   5.80713   5.81530
 Alpha virt. eigenvalues --    5.89048   6.03060   6.11986   6.77099   6.84066
 Alpha virt. eigenvalues --    6.85266   6.87381   6.89960   6.95755   6.97674
 Alpha virt. eigenvalues --    6.98479   7.00702   7.03570   7.05645   7.06597
 Alpha virt. eigenvalues --    7.07889   7.09359   7.14973   7.17559   7.18986
 Alpha virt. eigenvalues --    7.23733   7.30985   7.33249   7.35331   7.36342
 Alpha virt. eigenvalues --    7.37574   7.40114   7.56075   9.89963  23.67020
 Alpha virt. eigenvalues --   23.91054  23.92826  23.96134  23.99340  24.00135
 Alpha virt. eigenvalues --   24.01175  24.05014  24.07125  24.08804  24.13631
 Alpha virt. eigenvalues --   24.17085  24.32570  25.87660  26.28204  27.41223
 Alpha virt. eigenvalues --   35.77702  49.96672  49.99769  50.03303  50.04528
 Alpha virt. eigenvalues --   50.08968 215.90169
          Condensed to atoms (all electrons):
              1          2          3          4          5          6
     1  O    8.260150   0.469220  -0.070721  -0.010506  -0.002846   0.017479
     2  C    0.469220  10.428474  -0.144422  -0.840450   0.003960  -0.149487
     3  C   -0.070721  -0.144422   8.365652   0.521192  -0.187262   0.327500
     4  C   -0.010506  -0.840450   0.521192   8.408080  -0.072857   0.672247
     5  N   -0.002846   0.003960  -0.187262  -0.072857   7.266638  -0.303831
     6  C    0.017479  -0.149487   0.327500   0.672247  -0.303831   9.715163
     7  C    0.000423  -0.030738   0.119996   0.403955  -0.145201  -1.462998
     8  O    0.000019   0.000541  -0.003253  -0.020691   0.029352   0.009559
     9  C    0.002286  -0.023011   0.059284   0.058383  -0.157486   0.923346
    10  C   -0.013163   0.082155  -0.108242  -0.258417   0.069708  -0.410333
    11  O    0.020161   0.080020  -0.047510  -0.112603   0.017867  -0.027073
    12  O   -0.001445   0.007496   0.000527  -0.022111   0.001055   0.057096
    13  C   -0.055448   0.186325  -0.616369  -1.897921   0.800887  -3.599751
    14  C   -0.002257   0.079304  -0.093638  -0.558728   0.113142  -0.213469
    15  O    0.002812  -0.050706   0.041649   0.090796  -0.056067  -0.087159
    16  C    0.051456   0.161405   1.343030  -1.420963   0.021150   0.422572
    17  C   -0.042165  -1.690531  -1.212189   0.421203   0.025488  -0.173417
    18  Cl   0.000016   0.078756   0.082851  -0.053520   0.000410  -0.000167
    19  C    0.021314   0.185794  -1.367681  -0.640080   0.000401   0.031166
    20  C   -0.338168  -2.463875  -1.122130   0.624181   0.013433  -0.181669
    21  H    0.259542   0.036165  -0.051182  -0.034893   0.001341  -0.026949
    22  H   -0.000070  -0.002014   0.001210  -0.016280  -0.057494   0.509383
    23  H    0.000023  -0.001748   0.000561   0.010432   0.010237  -0.098741
    24  H   -0.000003   0.001481   0.003614  -0.006095   0.017656  -0.094278
    25  H    0.000212  -0.002140   0.003648   0.007259   0.001882  -0.009728
    26  H    0.000007   0.001755  -0.000459  -0.009466   0.003278  -0.007295
    27  H   -0.001191   0.003302   0.018075   0.015825  -0.001302   0.007232
    28  H    0.000444   0.015575   0.000813   0.007517  -0.009293  -0.027397
    29  H   -0.000100   0.001929   0.002376   0.014838  -0.005206   0.026223
    30  H    0.000332  -0.005268   0.003704  -0.021174   0.001514  -0.017381
    31  H    0.000006  -0.000069  -0.000057  -0.001441   0.000128   0.012995
    32  H   -0.000551   0.018173  -0.001173   0.010981   0.007890   0.000929
    33  H   -0.000737   0.022989  -0.009749   0.000281  -0.000068  -0.000039
    34  H    0.002320  -0.177009   0.009318   0.007905  -0.000002   0.000172
              7          8          9         10         11         12
     1  O    0.000423   0.000019   0.002286  -0.013163   0.020161  -0.001445
     2  C   -0.030738   0.000541  -0.023011   0.082155   0.080020   0.007496
     3  C    0.119996  -0.003253   0.059284  -0.108242  -0.047510   0.000527
     4  C    0.403955  -0.020691   0.058383  -0.258417  -0.112603  -0.022111
     5  N   -0.145201   0.029352  -0.157486   0.069708   0.017867   0.001055
     6  C   -1.462998   0.009559   0.923346  -0.410333  -0.027073   0.057096
     7  C    7.741462   0.085939  -1.170196   0.084359  -0.004825  -0.023811
     8  O    0.085939   8.207780  -0.089864   0.030280  -0.000820  -0.001367
     9  C   -1.170196  -0.089864   6.643247  -0.155159  -0.113221  -0.038329
    10  C    0.084359   0.030280  -0.155159   5.133496   0.398058   0.446059
    11  O   -0.004825  -0.000820  -0.113221   0.398058   7.912074  -0.079448
    12  O   -0.023811  -0.001367  -0.038329   0.446059  -0.079448   8.196703
    13  C   -0.010993   0.036396  -0.373439   0.476266   0.076973  -0.042337
    14  C   -0.379552   0.017062   0.072535   0.001359  -0.001835  -0.019227
    15  O    0.019787   0.000872  -0.059160   0.105154   0.035771  -0.000055
    16  C    0.096123  -0.002362   0.005605  -0.157840   0.009474   0.002131
    17  C   -0.007064  -0.000779  -0.022894  -0.003785  -0.026383  -0.000506
    18  Cl  -0.000577  -0.000005   0.000898  -0.000525  -0.000048  -0.000003
    19  C    0.012643  -0.000070  -0.002067  -0.014406   0.009914   0.000678
    20  C   -0.055674   0.000198  -0.002446   0.054181  -0.010486   0.001822
    21  H    0.004498   0.000000  -0.005674   0.010146   0.002492  -0.001190
    22  H   -0.048298  -0.005964  -0.016771   0.000962  -0.000066  -0.000051
    23  H    0.570178  -0.052378  -0.076281  -0.009500  -0.000275  -0.001866
    24  H    0.106060   0.250824  -0.020403   0.000319   0.000151  -0.000161
    25  H   -0.036173  -0.001745   0.457436  -0.055305  -0.004774   0.004691
    26  H    0.002761  -0.000813   0.400853  -0.061763   0.005352  -0.006317
    27  H    0.008661   0.000038  -0.005968  -0.034107   0.273444   0.021360
    28  H    0.020027  -0.000832   0.004754  -0.001100  -0.000043   0.000019
    29  H   -0.008604   0.000401   0.008413  -0.005796  -0.000705   0.002177
    30  H    0.010473  -0.000060  -0.002034   0.002223   0.000040   0.000208
    31  H   -0.010526  -0.000060  -0.000891   0.000143  -0.000123   0.000242
    32  H   -0.000906   0.000010   0.000570   0.000353  -0.000480  -0.000004
    33  H   -0.000010   0.000000   0.000002   0.000002   0.000000   0.000000
    34  H    0.000014   0.000000  -0.000015   0.000003  -0.000026  -0.000001
             13         14         15         16         17         18
     1  O   -0.055448  -0.002257   0.002812   0.051456  -0.042165   0.000016
     2  C    0.186325   0.079304  -0.050706   0.161405  -1.690531   0.078756
     3  C   -0.616369  -0.093638   0.041649   1.343030  -1.212189   0.082851
     4  C   -1.897921  -0.558728   0.090796  -1.420963   0.421203  -0.053520
     5  N    0.800887   0.113142  -0.056067   0.021150   0.025488   0.000410
     6  C   -3.599751  -0.213469  -0.087159   0.422572  -0.173417  -0.000167
     7  C   -0.010993  -0.379552   0.019787   0.096123  -0.007064  -0.000577
     8  O    0.036396   0.017062   0.000872  -0.002362  -0.000779  -0.000005
     9  C   -0.373439   0.072535  -0.059160   0.005605  -0.022894   0.000898
    10  C    0.476266   0.001359   0.105154  -0.157840  -0.003785  -0.000525
    11  O    0.076973  -0.001835   0.035771   0.009474  -0.026383  -0.000048
    12  O   -0.042337  -0.019227  -0.000055   0.002131  -0.000506  -0.000003
    13  C   10.020771   0.549638   0.202905  -0.916756   0.188923   0.001432
    14  C    0.549638   5.916138  -0.034808  -0.097680   0.001095   0.000047
    15  O    0.202905  -0.034808   8.400014  -0.093199  -0.028317  -0.000330
    16  C   -0.916756  -0.097680  -0.093199   9.686749  -0.063845   0.221909
    17  C    0.188923   0.001095  -0.028317  -0.063845   9.860846  -0.665432
    18  Cl   0.001432   0.000047  -0.000330   0.221909  -0.665432  17.085048
    19  C   -0.088706  -0.004157   0.000687  -0.304019  -1.770826   0.312479
    20  C    0.372983   0.049010   0.036191  -2.370291   0.194391   0.029001
    21  H    0.043480  -0.000408   0.026863  -0.013699   0.005798   0.000121
    22  H   -0.062612   0.022247   0.008892   0.000969   0.001066   0.000002
    23  H   -0.018046  -0.006893  -0.003535   0.001561   0.000101  -0.000001
    24  H    0.032223  -0.000082  -0.000514  -0.005635  -0.000691  -0.000004
    25  H   -0.019367  -0.000475  -0.001848   0.012560  -0.001321   0.000012
    26  H    0.014913   0.000856   0.001142  -0.000127   0.000036   0.000005
    27  H   -0.023557  -0.005149  -0.003490   0.012044  -0.004078  -0.000023
    28  H    0.422994  -0.045863  -0.055093  -0.011165  -0.002946  -0.000007
    29  H   -0.070167   0.410676  -0.003898  -0.000857  -0.000171   0.000000
    30  H    0.019916   0.387254  -0.001680   0.000465   0.000095   0.000000
    31  H   -0.064606   0.434973   0.005866  -0.000065   0.000009   0.000000
    32  H    0.004129  -0.000030   0.000379   0.385001  -0.100063  -0.011406
    33  H    0.000085   0.000004   0.000005   0.014267  -0.061754  -0.003724
    34  H   -0.000281  -0.000080  -0.000061  -0.022137   0.049155  -0.000966
             19         20         21         22         23         24
     1  O    0.021314  -0.338168   0.259542  -0.000070   0.000023  -0.000003
     2  C    0.185794  -2.463875   0.036165  -0.002014  -0.001748   0.001481
     3  C   -1.367681  -1.122130  -0.051182   0.001210   0.000561   0.003614
     4  C   -0.640080   0.624181  -0.034893  -0.016280   0.010432  -0.006095
     5  N    0.000401   0.013433   0.001341  -0.057494   0.010237   0.017656
     6  C    0.031166  -0.181669  -0.026949   0.509383  -0.098741  -0.094278
     7  C    0.012643  -0.055674   0.004498  -0.048298   0.570178   0.106060
     8  O   -0.000070   0.000198   0.000000  -0.005964  -0.052378   0.250824
     9  C   -0.002067  -0.002446  -0.005674  -0.016771  -0.076281  -0.020403
    10  C   -0.014406   0.054181   0.010146   0.000962  -0.009500   0.000319
    11  O    0.009914  -0.010486   0.002492  -0.000066  -0.000275   0.000151
    12  O    0.000678   0.001822  -0.001190  -0.000051  -0.001866  -0.000161
    13  C   -0.088706   0.372983   0.043480  -0.062612  -0.018046   0.032223
    14  C   -0.004157   0.049010  -0.000408   0.022247  -0.006893  -0.000082
    15  O    0.000687   0.036191   0.026863   0.008892  -0.003535  -0.000514
    16  C   -0.304019  -2.370291  -0.013699   0.000969   0.001561  -0.005635
    17  C   -1.770826   0.194391   0.005798   0.001066   0.000101  -0.000691
    18  Cl   0.312479   0.029001   0.000121   0.000002  -0.000001  -0.000004
    19  C   10.276411  -0.386007  -0.007868  -0.000006  -0.000019  -0.000067
    20  C   -0.386007  11.042226   0.060685  -0.000021  -0.000111   0.000149
    21  H   -0.007868   0.060685   0.297043   0.000065  -0.000026   0.000001
    22  H   -0.000006  -0.000021   0.000065   0.552376  -0.001914  -0.000207
    23  H   -0.000019  -0.000111  -0.000026  -0.001914   0.534933   0.005415
    24  H   -0.000067   0.000149   0.000001  -0.000207   0.005415   0.404200
    25  H    0.000570  -0.002829  -0.000035  -0.000150   0.005637   0.002285
    26  H    0.000060   0.000187   0.000003  -0.000131  -0.008928  -0.001456
    27  H    0.003487  -0.014284  -0.002940  -0.000001   0.000106   0.000001
    28  H    0.000152   0.001176  -0.000296  -0.012735  -0.000207  -0.000065
    29  H    0.000022   0.000043   0.000078  -0.000326  -0.001558  -0.000077
    30  H   -0.000057  -0.000807  -0.000292  -0.000216   0.000319   0.000004
    31  H   -0.000014   0.000046  -0.000038  -0.000384   0.000429  -0.000017
    32  H    0.012471   0.004299   0.000071   0.000004  -0.000003   0.000007
    33  H    0.414382  -0.038291   0.000019   0.000000   0.000000   0.000000
    34  H   -0.098624   0.580465   0.000950   0.000000   0.000000   0.000000
             25         26         27         28         29         30
     1  O    0.000212   0.000007  -0.001191   0.000444  -0.000100   0.000332
     2  C   -0.002140   0.001755   0.003302   0.015575   0.001929  -0.005268
     3  C    0.003648  -0.000459   0.018075   0.000813   0.002376   0.003704
     4  C    0.007259  -0.009466   0.015825   0.007517   0.014838  -0.021174
     5  N    0.001882   0.003278  -0.001302  -0.009293  -0.005206   0.001514
     6  C   -0.009728  -0.007295   0.007232  -0.027397   0.026223  -0.017381
     7  C   -0.036173   0.002761   0.008661   0.020027  -0.008604   0.010473
     8  O   -0.001745  -0.000813   0.000038  -0.000832   0.000401  -0.000060
     9  C    0.457436   0.400853  -0.005968   0.004754   0.008413  -0.002034
    10  C   -0.055305  -0.061763  -0.034107  -0.001100  -0.005796   0.002223
    11  O   -0.004774   0.005352   0.273444  -0.000043  -0.000705   0.000040
    12  O    0.004691  -0.006317   0.021360   0.000019   0.002177   0.000208
    13  C   -0.019367   0.014913  -0.023557   0.422994  -0.070167   0.019916
    14  C   -0.000475   0.000856  -0.005149  -0.045863   0.410676   0.387254
    15  O   -0.001848   0.001142  -0.003490  -0.055093  -0.003898  -0.001680
    16  C    0.012560  -0.000127   0.012044  -0.011165  -0.000857   0.000465
    17  C   -0.001321   0.000036  -0.004078  -0.002946  -0.000171   0.000095
    18  Cl   0.000012   0.000005  -0.000023  -0.000007   0.000000   0.000000
    19  C    0.000570   0.000060   0.003487   0.000152   0.000022  -0.000057
    20  C   -0.002829   0.000187  -0.014284   0.001176   0.000043  -0.000807
    21  H   -0.000035   0.000003  -0.002940  -0.000296   0.000078  -0.000292
    22  H   -0.000150  -0.000131  -0.000001  -0.012735  -0.000326  -0.000216
    23  H    0.005637  -0.008928   0.000106  -0.000207  -0.001558   0.000319
    24  H    0.002285  -0.001456   0.000001  -0.000065  -0.000077   0.000004
    25  H    0.495346  -0.031097   0.001311  -0.000018  -0.000212   0.000016
    26  H   -0.031097   0.517404  -0.000573   0.000001  -0.000124  -0.000005
    27  H    0.001311  -0.000573   0.395786  -0.000002  -0.000223   0.000052
    28  H   -0.000018   0.000001  -0.000002   0.569689   0.006690  -0.007636
    29  H   -0.000212  -0.000124  -0.000223   0.006690   0.519174  -0.026505
    30  H    0.000016  -0.000005   0.000052  -0.007636  -0.026505   0.527963
    31  H    0.000004  -0.000005   0.000006  -0.003327  -0.025844  -0.024513
    32  H   -0.000225  -0.000004  -0.000033  -0.000015   0.000001   0.000001
    33  H    0.000000   0.000000  -0.000002   0.000000   0.000000   0.000000
    34  H    0.000000   0.000000   0.000019   0.000000   0.000000   0.000000
             31         32         33         34
     1  O    0.000006  -0.000551  -0.000737   0.002320
     2  C   -0.000069   0.018173   0.022989  -0.177009
     3  C   -0.000057  -0.001173  -0.009749   0.009318
     4  C   -0.001441   0.010981   0.000281   0.007905
     5  N    0.000128   0.007890  -0.000068  -0.000002
     6  C    0.012995   0.000929  -0.000039   0.000172
     7  C   -0.010526  -0.000906  -0.000010   0.000014
     8  O   -0.000060   0.000010   0.000000   0.000000
     9  C   -0.000891   0.000570   0.000002  -0.000015
    10  C    0.000143   0.000353   0.000002   0.000003
    11  O   -0.000123  -0.000480   0.000000  -0.000026
    12  O    0.000242  -0.000004   0.000000  -0.000001
    13  C   -0.064606   0.004129   0.000085  -0.000281
    14  C    0.434973  -0.000030   0.000004  -0.000080
    15  O    0.005866   0.000379   0.000005  -0.000061
    16  C   -0.000065   0.385001   0.014267  -0.022137
    17  C    0.000009  -0.100063  -0.061754   0.049155
    18  Cl   0.000000  -0.011406  -0.003724  -0.000966
    19  C   -0.000014   0.012471   0.414382  -0.098624
    20  C    0.000046   0.004299  -0.038291   0.580465
    21  H   -0.000038   0.000071   0.000019   0.000950
    22  H   -0.000384   0.000004   0.000000   0.000000
    23  H    0.000429  -0.000003   0.000000   0.000000
    24  H   -0.000017   0.000007   0.000000   0.000000
    25  H    0.000004  -0.000225   0.000000   0.000000
    26  H   -0.000005  -0.000004   0.000000   0.000000
    27  H    0.000006  -0.000033  -0.000002   0.000019
    28  H   -0.003327  -0.000015   0.000000   0.000000
    29  H   -0.025844   0.000001   0.000000   0.000000
    30  H   -0.024513   0.000001   0.000000   0.000000
    31  H    0.513501   0.000000   0.000000   0.000000
    32  H    0.000000   0.499274  -0.000080   0.000043
    33  H    0.000000  -0.000080   0.516262  -0.004782
    34  H    0.000000   0.000043  -0.004782   0.518529
 Mulliken atomic charges:
              1
     1  O   -0.568852
     2  C   -0.283349
     3  C    0.131041
     4  C    0.723122
     5  N   -0.408502
     6  C    0.158102
     7  C    0.108785
     8  O   -0.488209
     9  C   -0.302300
    10  C    0.394215
    11  O   -0.411046
    12  O   -0.504033
    13  C    0.409118
    14  C   -0.591006
    15  O   -0.499866
    16  C   -0.967831
    17  C    1.130951
    18  Cl  -0.076248
    19  C   -0.597958
    20  C   -0.077582
    21  H    0.396128
    22  H    0.128537
    23  H    0.142097
    24  H    0.305366
    25  H    0.174575
    26  H    0.179948
    27  H    0.336176
    28  H    0.128190
    29  H    0.157335
    30  H    0.153049
    31  H    0.163633
    32  H    0.170388
    33  H    0.150936
    34  H    0.135090
 Sum of Mulliken atomic charges =   0.00000
 Mulliken charges with hydrogens summed into heavy atoms:
              1
     1  O   -0.172724
     2  C   -0.283349
     3  C    0.131041
     4  C    0.723122
     5  N   -0.408502
     6  C    0.286639
     7  C    0.250883
     8  O   -0.182843
     9  C    0.052223
    10  C    0.394215
    11  O   -0.074870
    12  O   -0.504033
    13  C    0.537308
    14  C   -0.116989
    15  O   -0.499866
    16  C   -0.797443
    17  C    1.130951
    18  Cl  -0.076248
    19  C   -0.447022
    20  C    0.057508
 Sum of Mulliken charges with hydrogens summed into heavy atoms =   0.00000
 Electronic spatial extent (au):  <R**2>=           6278.2975
 Charge=              0.0000 electrons
 Dipole moment (field-independent basis, Debye):
    X=              0.5052    Y=             -1.9097    Z=             -1.6490  Tot=              2.5732
 Quadrupole moment (field-independent basis, Debye-Ang):
   XX=           -135.3567   YY=           -128.1032   ZZ=           -120.3879
   XY=              4.2912   XZ=            -12.6493   YZ=              1.4093
 Traceless Quadrupole moment (field-independent basis, Debye-Ang):
   XX=             -7.4075   YY=             -0.1539   ZZ=              7.5614
   XY=              4.2912   XZ=            -12.6493   YZ=              1.4093
 Octapole moment (field-independent basis, Debye-Ang**2):
  XXX=            -23.1084  YYY=             -2.1701  ZZZ=              0.5414  XYY=            -16.6569
  XXY=            -52.6785  XXZ=            -30.2538  XZZ=             18.9237  YZZ=             -1.6836
  YYZ=              8.6466  XYZ=             19.4946
 Hexadecapole moment (field-independent basis, Debye-Ang**3):
 XXXX=          -5803.3410 YYYY=          -1683.4573 ZZZZ=           -917.7587 XXXY=             82.8489
 XXXZ=           -183.4207 YYYX=            -75.7849 YYYZ=            -20.9759 ZZZX=            -27.2964
 ZZZY=             -1.7615 XXYY=          -1333.2028 XXZZ=          -1123.7752 YYZZ=           -428.5945
 XXYZ=             30.2232 YYXZ=            -30.3187 ZZXY=             20.9227
 N-N= 1.772629365232D+03 E-N=-6.824670197011D+03  KE= 1.390537225021D+03
 1\1\GINC-PROD2-0049\SP\RB3LYP\6-311+G(2d,p)\C13H14Cl1N1O5\YUHENG\26-Ma
 r-2019\0\\# b3lyp/6-311+G(2d,p) nmr guess=read geom=check integral(ult
 rafinegrid) scrf=(iefpcm,read,solvent=methanol)\\Candidate Structure: 
 1b, Conformer: 19, NMR calculation with methanol solvation\\0,1\O,0,-0
 .8377026595,-2.7518930083,-0.2529937431\C,0,-1.6340503492,-1.661813494
 8,-0.1997406721\C,0,-1.2147413262,-0.345054015,-0.4626903392\C,0,0.167
 8011396,0.0031678591,-0.8277752279\N,0,0.648239573,1.1809475662,-0.916
 0814205\C,0,2.0920424164,1.0189554377,-1.1564404104\C,0,2.8968185657,1
 .4139844796,0.1072803079\O,0,3.1528348165,2.8099410003,0.0877162634\C,
 0,2.2351911819,1.0787548349,1.459726059\C,0,2.0933981043,-0.3909296028
 ,1.7693185901\O,0,0.8224740571,-0.7763834487,1.932465949\O,0,3.0315817
 301,-1.1509487387,1.9022194615\C,0,2.198522233,-0.4278708308,-1.673784
 5665\C,0,3.4324548477,-1.2471629969,-1.3759729059\O,0,1.0147041364,-1.
 0347451273,-1.0870617854\C,0,-2.1372507461,0.7079785822,-0.3493556843\
 C,0,-3.4465543848,0.4505993531,0.0064249607\Cl,0,-4.5853573811,1.77233
 59736,0.1337714442\C,0,-3.8758415958,-0.8540751691,0.2654340322\C,0,-2
 .9694586763,-1.8958110335,0.1626334362\H,0,0.060344379,-2.5178860317,-
 0.5406008662\H,0,2.419963739,1.7081416426,-1.9411572348\H,0,3.88235162
 4,0.9376877873,0.0572358352\H,0,2.308376884,3.2850889132,-0.0023124827
 \H,0,1.2630784809,1.5706663281,1.524143686\H,0,2.8956819903,1.49270034
 15,2.2273787476\H,0,0.804787419,-1.7317326642,2.1520126651\H,0,2.01300
 82785,-0.4125356826,-2.755008015\H,0,3.6118998837,-1.3440114287,-0.304
 3839149\H,0,3.3317007431,-2.2443962513,-1.809969429\H,0,4.3008946233,-
 0.7665932439,-1.8369312882\H,0,-1.7993709321,1.7203746854,-0.547437992
 \H,0,-4.9073628097,-1.0468775609,0.5444761433\H,0,-3.2730809435,-2.919
 0771908,0.3618948969\\Version=EM64L-G09RevB.01\State=1-A\HF=-1395.2398
 468\RMSD=4.610e-09\Dipole=0.1987705,-0.7513162,-0.6487597\Quadrupole=-
 5.5072651,-0.1144453,5.6217103,3.190435,-9.4044327,1.0477767\PG=C01 [X
 (C13H14Cl1N1O5)]\\@


 KNOWLEDGE IS CHIMERA - FOR BEYOND IT LIES OTHER KNOWLEDGE,
 AND THE INCOMPLETENESS OF WHAT IS KNOWN RENDERS THE KNOWING FALSE.
     -- THE THOMAS COVENANT CHRONICLES
 Job cpu time:  0 days  2 hours 51 minutes 19.2 seconds.
 File lengths (MBytes):  RWF=    326 Int=      0 D2E=      0 Chk=     29 Scr=      1
 Normal termination of Gaussian 09 at Tue Mar 26 03:00:36 2019.
