 Entering Gaussian System, Link 0=g09
 Initial command:
 /home/yuheng/proj/yuheng/g09/l1.exe /home/yuheng/proj/yuheng/g09_scratch/Gau-45128.inp -scrdir=/home/yuheng/proj/yuheng/g09_scratch/
 Entering Link 1 = /home/yuheng/proj/yuheng/g09/l1.exe PID=     45129.
  
 Copyright (c) 1988,1990,1992,1993,1995,1998,2003,2009,2010,
            Gaussian, Inc.  All Rights Reserved.
  
 This is part of the Gaussian(R) 09 program.  It is based on
 the Gaussian(R) 03 system (copyright 2003, Gaussian, Inc.),
 the Gaussian(R) 98 system (copyright 1998, Gaussian, Inc.),
 the Gaussian(R) 94 system (copyright 1995, Gaussian, Inc.),
 the Gaussian 92(TM) system (copyright 1992, Gaussian, Inc.),
 the Gaussian 90(TM) system (copyright 1990, Gaussian, Inc.),
 the Gaussian 88(TM) system (copyright 1988, Gaussian, Inc.),
 the Gaussian 86(TM) system (copyright 1986, Carnegie Mellon
 University), and the Gaussian 82(TM) system (copyright 1983,
 Carnegie Mellon University). Gaussian is a federally registered
 trademark of Gaussian, Inc.
  
 This software contains proprietary and confidential information,
 including trade secrets, belonging to Gaussian, Inc.
  
 This software is provided under written license and may be
 used, copied, transmitted, or stored only in accord with that
 written license.
  
 The following legend is applicable only to US Government
 contracts under FAR:
  
                    RESTRICTED RIGHTS LEGEND
  
 Use, reproduction and disclosure by the US Government is
 subject to restrictions as set forth in subparagraphs (a)
 and (c) of the Commercial Computer Software - Restricted
 Rights clause in FAR 52.227-19.
  
 Gaussian, Inc.
 340 Quinnipiac St., Bldg. 40, Wallingford CT 06492
  
  
 ---------------------------------------------------------------
 Warning -- This program may not be used in any manner that
 competes with the business of Gaussian, Inc. or will provide
 assistance to any competitor of Gaussian, Inc.  The licensee
 of this program is prohibited from giving any competitor of
 Gaussian, Inc. access to this program.  By using this program,
 the user acknowledges that Gaussian, Inc. is engaged in the
 business of creating and licensing software in the field of
 computational chemistry and represents and warrants to the
 licensee that it is not a competitor of Gaussian, Inc. and that
 it will not use this program in any manner prohibited above.
 ---------------------------------------------------------------
  

 Cite this work as:
 Gaussian 09, Revision B.01,
 M. J. Frisch, G. W. Trucks, H. B. Schlegel, G. E. Scuseria, 
 M. A. Robb, J. R. Cheeseman, G. Scalmani, V. Barone, B. Mennucci, 
 G. A. Petersson, H. Nakatsuji, M. Caricato, X. Li, H. P. Hratchian, 
 A. F. Izmaylov, J. Bloino, G. Zheng, J. L. Sonnenberg, M. Hada, 
 M. Ehara, K. Toyota, R. Fukuda, J. Hasegawa, M. Ishida, T. Nakajima, 
 Y. Honda, O. Kitao, H. Nakai, T. Vreven, J. A. Montgomery, Jr., 
 J. E. Peralta, F. Ogliaro, M. Bearpark, J. J. Heyd, E. Brothers, 
 K. N. Kudin, V. N. Staroverov, T. Keith, R. Kobayashi, J. Normand, 
 K. Raghavachari, A. Rendell, J. C. Burant, S. S. Iyengar, J. Tomasi, 
 M. Cossi, N. Rega, J. M. Millam, M. Klene, J. E. Knox, J. B. Cross, 
 V. Bakken, C. Adamo, J. Jaramillo, R. Gomperts, R. E. Stratmann, 
 O. Yazyev, A. J. Austin, R. Cammi, C. Pomelli, J. W. Ochterski, 
 R. L. Martin, K. Morokuma, V. G. Zakrzewski, G. A. Voth, 
 P. Salvador, J. J. Dannenberg, S. Dapprich, A. D. Daniels, 
 O. Farkas, J. B. Foresman, J. V. Ortiz, J. Cioslowski, 
 and D. J. Fox, Gaussian, Inc., Wallingford CT, 2010.
 
 ******************************************
 Gaussian 09:  EM64L-G09RevB.01 12-Aug-2010
                26-Mar-2019 
 ******************************************
 %mem=16gb
 %nprocshared=20
 Will use up to   20 processors via shared memory.
 %chk=1b-conf-6.chk
 ----------------------------------------------------------------------
 # b3lyp/6-311+G(2d,p) nmr guess=read geom=check integral(ultrafinegrid
 ) scrf=(iefpcm,read,solvent=methanol)
 ----------------------------------------------------------------------
 1/29=2,38=1,40=2/1;
 2/12=2,40=1/2;
 3/5=4,6=6,7=112,11=2,14=-4,16=1,25=1,30=1,70=2203,72=3,74=-5,75=-5,116=-2/1,2,8,3;
 4/5=1/1;
 5/5=2,38=6,53=3/2;
 8/6=1,10=90,11=11/1;
 10/13=100,45=16/2;
 6/7=2,8=2,9=2,10=2,28=1/1;
 99/9=1/99;
 ----------------------------------------------------------------------
 Candidate Structure: 1b, Conformer: 6, NMR calculation with methanol s
 olvation
 ----------------------------------------------------------------------
 Redundant internal coordinates taken from checkpoint file:
 1b-conf-6.chk
 Charge =  0 Multiplicity = 1
 O,0,1.7474189194,2.6888178474,1.218881142
 C,0,2.2555811526,1.523964896,0.7630058355
 C,0,1.5783304144,0.6263831263,-0.0841087602
 C,0,0.2141340576,0.8610074636,-0.5828588522
 N,0,-0.3970731385,0.169166439,-1.461734042
 C,0,-1.7700674107,0.6967076832,-1.5272990851
 C,0,-2.7390546569,-0.3202498552,-0.9019950092
 O,0,-2.9133865787,-1.4231536103,-1.775160496
 C,0,-2.2928741894,-0.8125531883,0.4736531145
 C,0,-3.4057212669,-1.5332747342,1.1953154901
 O,0,-2.9361748949,-2.4023904323,2.0974287089
 O,0,-4.5890887891,-1.342633441,1.0185432972
 C,0,-1.6626480703,2.0726869137,-0.8385279669
 C,0,-2.8118809894,2.5687549268,0.0107785346
 O,0,-0.4679048149,1.9039042112,-0.0235782306
 C,0,2.2196913102,-0.553915366,-0.4934294528
 C,0,3.5038800395,-0.8292555386,-0.0690250235
 Cl,0,4.2893385242,-2.3042506058,-0.5821125132
 C,0,4.1857386363,0.0558468685,0.7705538459
 C,0,3.5602552019,1.22089071,1.1783191116
 H,0,0.8374036534,2.8214208968,0.9003772155
 H,0,-2.0748574972,0.8175988422,-2.5714272704
 H,0,-3.728782449,0.1411416884,-0.8194009724
 H,0,-2.0423799047,-1.8230835699,-1.9467094172
 H,0,-1.9733289517,0.012560027,1.1239054253
 H,0,-1.4318857013,-1.4816943281,0.3798352383
 H,0,-3.6916103838,-2.8143861277,2.5670338269
 H,0,-1.4060030848,2.8248138314,-1.5946238427
 H,0,-3.0688398027,1.8717517282,0.8116371025
 H,0,-2.555567529,3.5313097189,0.4591128307
 H,0,-3.6930045111,2.7128492125,-0.6208068883
 H,0,1.686605906,-1.2394902616,-1.145156987
 H,0,5.1958971884,-0.170869684,1.0993283602
 H,0,4.0680140177,1.9258532167,1.8297403321
 Recover connectivity data from disk.
                          Input orientation:                          
 ---------------------------------------------------------------------
 Center     Atomic      Atomic             Coordinates (Angstroms)
 Number     Number       Type             X           Y           Z
 ---------------------------------------------------------------------
      1          8           0        1.747419    2.688818    1.218881
      2          6           0        2.255581    1.523965    0.763006
      3          6           0        1.578330    0.626383   -0.084109
      4          6           0        0.214134    0.861007   -0.582859
      5          7           0       -0.397073    0.169166   -1.461734
      6          6           0       -1.770067    0.696708   -1.527299
      7          6           0       -2.739055   -0.320250   -0.901995
      8          8           0       -2.913387   -1.423154   -1.775160
      9          6           0       -2.292874   -0.812553    0.473653
     10          6           0       -3.405721   -1.533275    1.195315
     11          8           0       -2.936175   -2.402390    2.097429
     12          8           0       -4.589089   -1.342633    1.018543
     13          6           0       -1.662648    2.072687   -0.838528
     14          6           0       -2.811881    2.568755    0.010779
     15          8           0       -0.467905    1.903904   -0.023578
     16          6           0        2.219691   -0.553915   -0.493429
     17          6           0        3.503880   -0.829256   -0.069025
     18         17           0        4.289339   -2.304251   -0.582113
     19          6           0        4.185739    0.055847    0.770554
     20          6           0        3.560255    1.220891    1.178319
     21          1           0        0.837404    2.821421    0.900377
     22          1           0       -2.074857    0.817599   -2.571427
     23          1           0       -3.728782    0.141142   -0.819401
     24          1           0       -2.042380   -1.823084   -1.946709
     25          1           0       -1.973329    0.012560    1.123905
     26          1           0       -1.431886   -1.481694    0.379835
     27          1           0       -3.691610   -2.814386    2.567034
     28          1           0       -1.406003    2.824814   -1.594624
     29          1           0       -3.068840    1.871752    0.811637
     30          1           0       -2.555568    3.531310    0.459113
     31          1           0       -3.693005    2.712849   -0.620807
     32          1           0        1.686606   -1.239490   -1.145157
     33          1           0        5.195897   -0.170870    1.099328
     34          1           0        4.068014    1.925853    1.829740
 ---------------------------------------------------------------------
                    Distance matrix (angstroms):
                    1          2          3          4          5
     1  O    0.000000
     2  C    1.350161   0.000000
     3  C    2.445406   1.407808   0.000000
     4  C    2.989669   2.533450   1.471337   0.000000
     5  N    4.258308   3.717731   2.451350   1.274614   0.000000
     6  C    4.886995   4.704859   3.646850   2.203637   1.472315
     7  C    5.803538   5.578507   4.494982   3.196645   2.457176
     8  O    6.898964   6.468850   5.218791   4.052204   2.994253
     9  C    5.398049   5.121668   4.167477   3.194075   2.881590
    10  C    6.661942   6.448562   5.580486   4.690186   4.360067
    11  O    6.973399   6.644643   5.857758   5.268601   5.072236
    12  O    7.512927   7.425106   6.567338   5.521908   5.100030
    13  C    4.030026   4.268317   3.628345   2.248521   2.369273
    14  C    4.718172   5.228442   4.801642   3.524993   3.709126
    15  O    2.658468   2.860148   2.413048   1.365872   2.254468
    16  C    3.697346   2.428478   1.404276   2.456067   2.882346
    17  C    4.137717   2.790730   2.413887   3.734092   4.260742
    18  Cl   5.885207   4.538805   4.023206   5.160053   5.371590
    19  C    3.616481   2.425064   2.802595   4.272429   5.098835
    20  C    2.332988   1.402324   2.423879   3.798393   4.872007
    21  H    0.973219   1.927042   2.517216   2.536075   3.760047
    22  H    5.698921   5.510907   4.423697   3.032453   2.113491
    23  H    6.374483   6.342619   5.379736   4.015065   3.393179
    24  H    6.688856   6.084222   4.751706   3.762484   2.628934
    25  H    4.584249   4.505361   3.801363   2.901362   3.032266
    26  H    5.310852   4.772653   3.704138   3.020664   2.680962
    27  H    7.854031   7.579241   6.829328   6.219741   5.998878
    28  H    4.228283   4.545088   4.002624   2.739534   2.843952
    29  H    4.902019   5.335989   4.893822   3.707309   3.899404
    30  H    4.450026   5.221967   5.081614   3.985908   4.433143
    31  H    5.743103   6.222062   5.694590   4.323944   4.247428
    32  H    4.585191   3.406098   2.149193   2.626108   2.535006
    33  H    4.481530   3.410430   3.888820   5.358404   6.160843
    34  H    2.518020   2.141109   3.398524   4.669788   5.818656
                    6          7          8          9         10
     6  C    0.000000
     7  C    1.537577   0.000000
     8  O    2.421245   1.417465   0.000000
     9  C    2.560274   1.527693   2.411438   0.000000
    10  C    3.880827   2.512884   3.013013   1.509525   0.000000
    11  O    4.909467   3.656598   3.994543   2.361793   1.337776
    12  O    4.311277   2.855935   3.258718   2.418779   1.211590
    13  C    1.542486   2.624657   3.829168   3.231658   4.491969
    14  C    2.637351   3.030645   4.374382   3.452081   4.310733
    15  O    2.326828   3.297969   4.485280   3.310120   4.683019
    16  C    4.307101   4.981033   5.361613   4.622271   5.954517
    17  C    5.680638   6.318794   6.666703   5.822125   7.059518
    18  Cl   6.827557   7.310054   7.353839   6.831202   7.935213
    19  C    6.415797   7.133837   7.685420   6.543294   7.767625
    20  C    6.000623   6.810589   7.590919   6.236231   7.490697
    21  H    4.148123   5.090157   6.264451   4.815236   6.087238
    22  H    1.094402   2.126702   2.521536   3.460844   4.635316
    23  H    2.155537   1.095110   2.006332   2.154845   2.639531
    24  H    2.568931   1.958390   0.973666   2.634782   3.437297
    25  H    2.745589   2.191203   3.368912   1.098066   2.108661
    26  H    2.914955   2.168117   2.615775   1.094465   2.136281
    27  H    5.725703   4.377470   4.625561   3.216526   1.898576
    28  H    2.160072   3.485425   4.511100   4.277236   5.547573
    29  H    2.922013   2.801814   4.191908   2.814578   3.443095
    30  H    3.549340   4.089107   5.446716   4.351823   5.187945
    31  H    2.929888   3.191986   4.364270   3.947996   4.627137
    32  H    3.980388   4.526655   4.646565   4.317300   5.612122
    33  H    7.495100   8.184807   8.694331   7.542209   8.709374
    34  H    6.845707   7.670954   8.541142   7.056822   8.259829
                   11         12         13         14         15
    11  O    0.000000
    12  O    2.240358   0.000000
    13  C    5.501639   4.865920   0.000000
    14  C    5.392758   4.412824   1.512660   0.000000
    15  O    5.397703   5.348849   1.456036   2.436684   0.000000
    16  C    6.059073   7.019090   4.700074   5.943233   3.672167
    17  C    6.974423   8.181840   5.975485   7.172286   4.821546
    18  Cl   7.706985   9.072667   7.392528   8.632788   6.375884
    19  C    7.650175   8.889029   6.392215   7.473864   5.069749
    20  C    7.495101   8.544530   5.663210   6.616949   4.258772
    21  H    6.554467   6.841062   3.136025   3.764639   1.843736
    22  H    5.736586   4.886292   2.179014   3.205860   3.202170
    23  H    3.950402   2.513912   2.828453   2.724557   3.791304
    24  H    4.182047   3.938183   4.068082   4.869511   4.479715
    25  H    2.776113   2.947855   2.862130   2.911418   2.675856
    26  H    2.461848   3.224161   3.764477   4.294966   3.543202
    27  H    0.980282   2.317185   6.292696   6.023834   6.274218
    28  H    6.579996   5.859035   1.096924   2.149273   2.048484
    29  H    4.465328   3.561775   2.177337   1.092344   2.731937
    30  H    6.167474   5.310696   2.146802   1.092342   2.690683
    31  H    5.841855   4.465129   2.139990   1.093637   3.378216
    32  H    5.765137   6.639020   4.720386   6.006272   3.972504
    33  H    8.491554   9.855227   7.471846   8.533170   6.135492
    34  H    8.237962   9.289051   6.323109   7.145271   4.899983
                   16         17         18         19         20
    16  C    0.000000
    17  C    1.380243   0.000000
    18  Cl   2.712006   1.748089   0.000000
    19  C    2.415534   1.397580   2.722223   0.000000
    20  C    2.782407   2.400447   4.007157   1.383774   0.000000
    21  H    3.904652   4.623557   6.355009   4.344721   3.170626
    22  H    4.964099   6.332176   7.362493   7.137518   6.780689
    23  H    5.997808   7.335949   8.386090   8.073096   7.634580
    24  H    4.678468   5.939225   6.494945   7.050061   7.100782
    25  H    4.529689   5.668470   6.891960   6.169347   5.664237
    26  H    3.867477   4.998893   5.859552   5.837328   5.732627
    27  H    7.029911   7.916100   8.594935   8.574276   8.414365
    28  H    5.076820   6.307664   7.731067   6.672992   5.909780
    29  H    5.962853   7.160423   8.574632   7.478510   6.671055
    30  H    6.356060   7.484007   9.054869   7.590853   6.577126
    31  H    6.756326   8.040281   9.428181   8.430311   7.620536
    32  H    1.085791   2.151473   2.867917   3.404924   3.868149
    33  H    3.397264   2.159038   2.863635   1.086238   2.149084
    34  H    3.868161   3.393255   4.874402   2.152361   1.085882
                   21         22         23         24         25
    21  H    0.000000
    22  H    4.954795   0.000000
    23  H    5.567009   2.502530   0.000000
    24  H    6.162019   2.713767   2.823643   0.000000
    25  H    3.979935   3.783369   2.621944   3.578132   0.000000
    26  H    4.892590   3.796065   3.057368   2.429416   1.754878
    27  H    7.419706   6.496844   4.494938   4.906783   3.609257
    28  H    3.355282   2.330327   3.632956   4.704454   3.952345
    29  H    4.021005   3.680267   2.467959   4.723759   2.180424
    30  H    3.494411   4.096277   3.808447   5.892442   3.628023
    31  H    4.780208   3.164695   2.579612   5.005723   3.645938
    32  H    4.625619   4.518237   5.598097   3.858549   4.484573
    33  H    5.290543   8.204596   9.133936   8.025012   7.171614
    34  H    3.478879   7.637629   8.425745   8.102655   6.376262
                   26         27         28         29         30
    26  H    0.000000
    27  H    3.415591   0.000000
    28  H    4.737633   7.371836   0.000000
    29  H    3.756551   5.042732   3.076271   0.000000
    30  H    5.138011   6.782461   2.457330   1.772528   0.000000
    31  H    4.869100   6.380647   2.488218   1.774520   1.769143
    32  H    3.479835   6.722043   5.126872   6.010252   6.582572
    33  H    6.794368   9.387765   7.734118   8.518271   8.614013
    34  H    6.630422   9.122787   6.519146   7.209310   6.951830
                   31         32         33         34
    31  H    0.000000
    32  H    6.695979   0.000000
    33  H    9.501962   4.300557   0.000000
    34  H    8.176671   4.953839   2.490355   0.000000
 Stoichiometry    C13H14ClNO5
 Framework group  C1[X(C13H14ClNO5)]
 Deg. of freedom    96
 Full point group                 C1      NOp   1
 Largest Abelian subgroup         C1      NOp   1
 Largest concise Abelian subgroup C1      NOp   1
                         Standard orientation:                         
 ---------------------------------------------------------------------
 Center     Atomic      Atomic             Coordinates (Angstroms)
 Number     Number       Type             X           Y           Z
 ---------------------------------------------------------------------
      1          8           0        1.747419    2.688818    1.218881
      2          6           0        2.255581    1.523965    0.763006
      3          6           0        1.578330    0.626383   -0.084109
      4          6           0        0.214134    0.861007   -0.582859
      5          7           0       -0.397073    0.169166   -1.461734
      6          6           0       -1.770067    0.696708   -1.527299
      7          6           0       -2.739055   -0.320250   -0.901995
      8          8           0       -2.913387   -1.423154   -1.775160
      9          6           0       -2.292874   -0.812553    0.473653
     10          6           0       -3.405721   -1.533275    1.195315
     11          8           0       -2.936175   -2.402390    2.097429
     12          8           0       -4.589089   -1.342633    1.018543
     13          6           0       -1.662648    2.072687   -0.838528
     14          6           0       -2.811881    2.568755    0.010779
     15          8           0       -0.467905    1.903904   -0.023578
     16          6           0        2.219691   -0.553915   -0.493429
     17          6           0        3.503880   -0.829256   -0.069025
     18         17           0        4.289339   -2.304251   -0.582113
     19          6           0        4.185739    0.055847    0.770554
     20          6           0        3.560255    1.220891    1.178319
     21          1           0        0.837404    2.821421    0.900377
     22          1           0       -2.074857    0.817599   -2.571427
     23          1           0       -3.728782    0.141142   -0.819401
     24          1           0       -2.042380   -1.823084   -1.946709
     25          1           0       -1.973329    0.012560    1.123905
     26          1           0       -1.431886   -1.481694    0.379835
     27          1           0       -3.691610   -2.814386    2.567034
     28          1           0       -1.406003    2.824814   -1.594624
     29          1           0       -3.068840    1.871752    0.811637
     30          1           0       -2.555568    3.531310    0.459113
     31          1           0       -3.693005    2.712849   -0.620807
     32          1           0        1.686606   -1.239490   -1.145157
     33          1           0        5.195897   -0.170870    1.099328
     34          1           0        4.068014    1.925853    1.829740
 ---------------------------------------------------------------------
 Rotational constants (GHZ):      0.4380459      0.1752508      0.1502104
 Standard basis: 6-311+G(2d,p) (5D, 7F)
 There are   632 symmetry adapted basis functions of A   symmetry.
 Integral buffers will be    131072 words long.
 Raffenetti 2 integral format.
 Two-electron integral symmetry is turned on.
   632 basis functions,   969 primitive gaussians,   672 cartesian basis functions
    78 alpha electrons       78 beta electrons
       nuclear repulsion energy      1702.4658069805 Hartrees.
 NAtoms=   34 NActive=   34 NUniq=   34 SFac= 1.00D+00 NAtFMM=   50 NAOKFM=F Big=F
 Using the following non-standard input for PCM:
 radii=bondi
 --- end of non-standard input.
 ------------------------------------------------------------------------------
 Polarizable Continuum Model (PCM)
 =================================
 Model                : PCM.
 Atomic radii         : Bondi.
 Polarization charges : Total charges.
 Charge compensation  : None.
 Solution method      : Matrix inversion.
 Cavity type          : Scaled VdW (van der Waals Surface) (Alpha=1.100).
 Cavity algorithm     : GePol (No added spheres)
                        Default sphere list used, NSphG=   34.
                        Lebedev-Laikov grids with approx.  5.0 points / Ang**2.
                        Smoothing algorithm: Karplus/York (Gamma=1.0000).
                        Polarization charges: spherical gaussians, with
                                              point-specific exponents (IZeta= 3).
                        Self-potential: point-specific (ISelfS= 7).
                        Self-field    : sphere-specific E.n sum rule (ISelfD= 2).
 Solvent              : Methanol, Eps=  32.613000 Eps(inf)=   1.765709
 ------------------------------------------------------------------------------
 One-electron integrals computed using PRISM.
 NBasis=   632 RedAO= T  NBF=   632
 NBsUse=   630 1.00D-06 NBFU=   630
 Initial guess read from the checkpoint file:  1b-conf-6.chk
 B after Tr=     0.000000    0.000000    0.000000
         Rot=    1.000000    0.000000    0.000000    0.000000 Ang=   0.00 deg.
 Initial guess orbital symmetries:
       Occupied  (A) (A) (A) (A) (A) (A) (A) (A) (A) (A) (A) (A)
                 (A) (A) (A) (A) (A) (A) (A) (A) (A) (A) (A) (A)
                 (A) (A) (A) (A) (A) (A) (A) (A) (A) (A) (A) (A)
                 (A) (A) (A) (A) (A) (A) (A) (A) (A) (A) (A) (A)
                 (A) (A) (A) (A) (A) (A) (A) (A) (A) (A) (A) (A)
                 (A) (A) (A) (A) (A) (A) (A) (A) (A) (A) (A) (A)
                 (A) (A) (A) (A) (A) (A)
       Virtual   (A) (A) (A) (A) (A) (A) (A) (A) (A) (A) (A) (A)
                 (A) (A) (A) (A) (A) (A) (A) (A) (A) (A) (A) (A)
                 (A) (A) (A) (A) (A) (A) (A) (A) (A) (A) (A) (A)
                 (A) (A) (A) (A) (A) (A) (A) (A) (A) (A) (A) (A)
                 (A) (A) (A) (A) (A) (A) (A) (A) (A) (A) (A) (A)
                 (A) (A) (A) (A) (A) (A) (A) (A) (A) (A) (A) (A)
                 (A) (A) (A) (A) (A) (A) (A) (A) (A) (A) (A) (A)
                 (A) (A) (A) (A) (A) (A) (A) (A) (A) (A) (A) (A)
                 (A) (A) (A) (A) (A) (A) (A) (A) (A) (A) (A) (A)
                 (A) (A) (A) (A) (A) (A) (A) (A) (A) (A) (A) (A)
                 (A) (A) (A) (A) (A) (A) (A) (A) (A) (A) (A) (A)
                 (A) (A) (A) (A) (A) (A) (A) (A) (A) (A) (A) (A)
                 (A) (A) (A) (A) (A) (A) (A) (A) (A) (A) (A) (A)
                 (A) (A) (A) (A) (A) (A) (A) (A) (A) (A) (A) (A)
                 (A) (A) (A) (A) (A) (A) (A) (A) (A) (A) (A) (A)
                 (A) (A) (A) (A) (A) (A) (A) (A) (A) (A) (A) (A)
                 (A) (A) (A) (A) (A) (A) (A) (A) (A) (A) (A) (A)
                 (A) (A) (A) (A) (A) (A) (A) (A) (A) (A) (A) (A)
                 (A) (A) (A) (A) (A) (A) (A) (A) (A) (A) (A) (A)
                 (A) (A) (A) (A) (A) (A) (A) (A) (A) (A) (A) (A)
                 (A) (A) (A) (A) (A) (A) (A) (A) (A) (A) (A) (A)
                 (A) (A) (A) (A) (A) (A) (A) (A) (A) (A) (A) (A)
                 (A) (A) (A) (A) (A) (A) (A) (A) (A) (A) (A) (A)
                 (A) (A) (A) (A) (A) (A) (A) (A) (A) (A) (A) (A)
                 (A) (A) (A) (A) (A) (A) (A) (A) (A) (A) (A) (A)
                 (A) (A) (A) (A) (A) (A) (A) (A) (A) (A) (A) (A)
                 (A) (A) (A) (A) (A) (A) (A) (A) (A) (A) (A) (A)
                 (A) (A) (A) (A) (A) (A) (A) (A) (A) (A) (A) (A)
                 (A) (A) (A) (A) (A) (A) (A) (A) (A) (A) (A) (A)
                 (A) (A) (A) (A) (A) (A) (A) (A) (A) (A) (A) (A)
                 (A) (A) (A) (A) (A) (A) (A) (A) (A) (A) (A) (A)
                 (A) (A) (A) (A) (A) (A) (A) (A) (A) (A) (A) (A)
                 (A) (A) (A) (A) (A) (A) (A) (A) (A) (A) (A) (A)
                 (A) (A) (A) (A) (A) (A) (A) (A) (A) (A) (A) (A)
                 (A) (A) (A) (A) (A) (A) (A) (A) (A) (A) (A) (A)
                 (A) (A) (A) (A) (A) (A) (A) (A) (A) (A) (A) (A)
                 (A) (A) (A) (A) (A) (A) (A) (A) (A) (A) (A) (A)
                 (A) (A) (A) (A) (A) (A) (A) (A) (A) (A) (A) (A)
                 (A) (A) (A) (A) (A) (A) (A) (A) (A) (A) (A) (A)
                 (A) (A) (A) (A) (A) (A) (A) (A) (A) (A) (A) (A)
                 (A) (A) (A) (A) (A) (A) (A) (A) (A) (A) (A) (A)
                 (A) (A) (A) (A) (A) (A) (A) (A) (A) (A) (A) (A)
                 (A) (A) (A) (A) (A) (A) (A) (A) (A) (A) (A) (A)
                 (A) (A) (A) (A) (A) (A) (A) (A) (A) (A) (A) (A)
                 (A) (A) (A) (A) (A) (A) (A) (A) (A) (A) (A) (A)
                 (A) (A) (A) (A) (A) (A) (A) (A) (A) (A) (A) (A)
 Requested convergence on RMS density matrix=1.00D-08 within 128 cycles.
 Requested convergence on MAX density matrix=1.00D-06.
 Requested convergence on             energy=1.00D-06.
 No special actions if energy rises.
 Error on total polarization charges =  0.05073
 SCF Done:  E(RB3LYP) =  -1395.24883408     A.U. after   13 cycles
             Convg  =    0.5712D-08             -V/T =  2.0034
 Range of M.O.s used for correlation:     1   630
 NBasis=   632 NAE=    78 NBE=    78 NFC=     0 NFV=     0
 NROrb=    630 NOA=    78 NOB=    78 NVA=   552 NVB=   552

 **** Warning!!: The largest alpha MO coefficient is  0.11017873D+03

 NEqPCM:  Using equilibrium solvation (IEInf=0, Eps=  32.6130, EpsInf=   1.7657)
          Differentiating once with respect to magnetic field using GIAOs.
          Electric field/nuclear overlap derivatives assumed to be zero.
 FoFCou: FMM=F IPFlag=           0 FMFlag=    10101102 FMFlg1=           0
         NFxFlg=    40000000 DoJE=F BraDBF=F KetDBF=T FulRan=T
         Omega=  0.000000  0.000000  1.000000  0.000000  0.000000 ICntrl=    6100 IOpCl=  0
         NMat0=    1 NMatS0=    1 NMatT0=    0 NMatD0=    1 NMtDS0=    0 NMtDT0=    0
         I1Cent=           7 NGrid=        2482.
 Symmetry not used in FoFCou.
          There are     3 degrees of freedom in the 1st order CPHF.  IDoFFX=0.
      3 vectors produced by pass  0 Test12= 1.44D-12 3.33D-08 XBig12= 3.44D+02 6.75D+00.
 AX will form     3 AO Fock derivatives at one time.
      3 vectors produced by pass  1 Test12= 1.44D-12 3.33D-08 XBig12= 6.43D-01 2.63D-01.
      3 vectors produced by pass  2 Test12= 1.44D-12 3.33D-08 XBig12= 2.63D-03 2.42D-02.
      3 vectors produced by pass  3 Test12= 1.44D-12 3.33D-08 XBig12= 8.47D-06 1.18D-03.
      3 vectors produced by pass  4 Test12= 1.44D-12 3.33D-08 XBig12= 3.58D-08 5.09D-05.
      3 vectors produced by pass  5 Test12= 1.44D-12 3.33D-08 XBig12= 2.01D-10 4.30D-06.
      3 vectors produced by pass  6 Test12= 1.44D-12 3.33D-08 XBig12= 8.73D-13 2.47D-07.
 Inverted reduced A of dimension    21 with in-core refinement.
 Calculating GIAO nuclear magnetic shielding tensors.
 SCF GIAO Magnetic shielding tensor (ppm):
  1  O    Isotropic =   200.7840   Anisotropy =    93.0986
   XX=   159.5183   YX=     6.0740   ZX=   -40.8911
   XY=     3.0187   YY=   221.6566   ZY=   -24.1504
   XZ=   -43.3545   YZ=   -35.5270   ZZ=   221.1772
   Eigenvalues:   136.9879   202.5145   262.8498
  2  C    Isotropic =    18.5531   Anisotropy =   144.2665
   XX=     5.6775   YX=    45.8380   ZX=   -22.7211
   XY=    38.8830   YY=   -17.9009   ZY=   -60.7617
   XZ=   -29.3678   YZ=   -56.4100   ZZ=    67.8827
   Eigenvalues:   -60.0558     0.9844   114.7307
  3  C    Isotropic =    65.0642   Anisotropy =   136.3032
   XX=    21.4565   YX=    22.4721   ZX=   -50.4517
   XY=    35.9078   YY=    63.5611   ZY=   -38.7782
   XZ=   -42.1735   YZ=   -42.3997   ZZ=   110.1750
   Eigenvalues:    -0.8873    40.1470   155.9330
  4  C    Isotropic =    10.4649   Anisotropy =    69.9649
   XX=   -21.6801   YX=    65.1129   ZX=    12.2054
   XY=    66.6255   YY=    -0.1980   ZY=   -16.4150
   XZ=    13.9186   YZ=    -9.2915   ZZ=    53.2727
   Eigenvalues:   -80.1816    54.4681    57.1081
  5  N    Isotropic =    14.7839   Anisotropy =   276.1815
   XX=  -101.9027   YX=    87.4000   ZX=   -55.8012
   XY=    90.8741   YY=    62.2076   ZY=   -77.9078
   XZ=  -109.3811   YZ=   -74.7987   ZZ=    84.0468
   Eigenvalues:  -151.4534    -3.0999   198.9049
  6  C    Isotropic =   106.4872   Anisotropy =    24.1617
   XX=   122.5165   YX=     6.0826   ZX=    10.7399
   XY=    -7.7211   YY=   108.2334   ZY=    11.8386
   XZ=   -11.8590   YZ=     2.8424   ZZ=    88.7118
   Eigenvalues:    86.2576   110.6090   122.5950
  7  C    Isotropic =   109.0059   Anisotropy =    42.7292
   XX=    90.3202   YX=     6.8798   ZX=    -0.2410
   XY=     8.2510   YY=   122.6898   ZY=    19.8518
   XZ=     2.6890   YZ=    15.4596   ZZ=   114.0076
   Eigenvalues:    88.2379   101.2877   137.4920
  8  O    Isotropic =   269.4384   Anisotropy =    42.9981
   XX=   252.6971   YX=   -16.7508   ZX=     5.1927
   XY=    -5.9886   YY=   265.7630   ZY=    15.8841
   XZ=    11.0832   YZ=    16.4944   ZZ=   289.8553
   Eigenvalues:   241.0835   269.1280   298.1038
  9  C    Isotropic =   142.3089   Anisotropy =    34.1889
   XX=   129.8410   YX=     5.5610   ZX=    -9.5069
   XY=     3.8277   YY=   137.8914   ZY=   -15.5853
   XZ=    -0.8682   YZ=    -6.4218   ZZ=   159.1943
   Eigenvalues:   127.6817   134.1434   165.1015
 10  C    Isotropic =     0.1436   Anisotropy =   106.6619
   XX=    25.5612   YX=     5.2500   ZX=    -4.9512
   XY=   -10.7900   YY=    -9.7442   ZY=    84.0576
   XZ=    13.1786   YZ=    83.4478   ZZ=   -15.3864
   Eigenvalues:   -96.5607    25.7399    71.2515
 11  O    Isotropic =   113.1869   Anisotropy =   192.0428
   XX=   -33.0074   YX=   -76.6367   ZX=    87.4318
   XY=    -6.3189   YY=   180.0133   ZY=   -36.8893
   XZ=    -1.7573   YZ=   -46.1787   ZZ=   192.5548
   Eigenvalues:   -45.9900   144.3352   241.2155
 12  O    Isotropic =   -55.4539   Anisotropy =   505.8035
   XX=  -207.7601   YX=    31.1455   ZX=   -28.6314
   XY=    30.6071   YY=    34.2697   ZY=   257.2034
   XZ=   -73.2387   YZ=   263.5232   ZZ=     7.1288
   Eigenvalues:  -284.3855  -163.7245   281.7485
 13  C    Isotropic =    97.5772   Anisotropy =    75.2597
   XX=   120.8978   YX=    -5.7953   ZX=    35.7020
   XY=   -15.9737   YY=    77.4844   ZY=    14.1441
   XZ=    39.6296   YZ=     4.1646   ZZ=    94.3493
   Eigenvalues:    57.9313    87.0499   147.7503
 14  C    Isotropic =   168.9340   Anisotropy =    17.7682
   XX=   174.8062   YX=    -4.0664   ZX=    -3.8706
   XY=    -8.2907   YY=   162.5162   ZY=     1.5231
   XZ=    -8.6735   YZ=     0.4639   ZZ=   169.4796
   Eigenvalues:   159.6574   166.3651   180.7794
 15  O    Isotropic =   122.0279   Anisotropy =   157.7034
   XX=    91.7249   YX=   -59.5586   ZX=   -96.7851
   XY=   -48.9841   YY=   154.8449   ZY=    -3.0459
   XZ=   -55.0925   YZ=    56.9178   ZZ=   119.5140
   Eigenvalues:    23.1106   115.8097   227.1635
 16  C    Isotropic =    47.0629   Anisotropy =   155.0340
   XX=    43.4529   YX=    -7.2759   ZX=   -53.1808
   XY=    -0.3736   YY=    18.6661   ZY=   -77.9830
   XZ=   -55.6837   YZ=   -77.5016   ZZ=    79.0699
   Eigenvalues:   -48.5633    39.3332   150.4189
 17  C    Isotropic =    46.7299   Anisotropy =   101.3372
   XX=    56.5536   YX=    49.0559   ZX=     2.2063
   XY=    47.6831   YY=    -3.6760   ZY=   -47.8530
   XZ=     1.4771   YZ=   -46.5453   ZZ=    87.3120
   Eigenvalues:   -44.4057    70.3072   114.2880
 18  Cl   Isotropic =   709.5357   Anisotropy =   492.2685
   XX=   634.2020   YX=  -184.9793   ZX=   -76.5734
   XY=  -185.4060   YY=   899.5651   ZY=   115.4761
   XZ=   -78.4435   YZ=   115.0390   ZZ=   594.8399
   Eigenvalues:   528.6298   562.2626  1037.7147
 19  C    Isotropic =    42.0852   Anisotropy =   162.9463
   XX=   -28.8755   YX=    35.0235   ZX=   -61.7588
   XY=    34.3966   YY=    56.5413   ZY=   -40.3362
   XZ=   -60.2078   YZ=   -40.9347   ZZ=    98.5897
   Eigenvalues:   -56.3106    31.8501   150.7160
 20  C    Isotropic =    58.1673   Anisotropy =   147.3788
   XX=    44.0123   YX=    -3.6191   ZX=   -53.5796
   XY=    -3.7456   YY=    40.7146   ZY=   -70.5740
   XZ=   -53.8967   YZ=   -70.5506   ZZ=    89.7751
   Eigenvalues:   -28.2714    46.3536   156.4199
 21  H    Isotropic =    23.5101   Anisotropy =    20.7763
   XX=    33.8476   YX=    -0.2080   ZX=     9.0181
   XY=    -2.0509   YY=    19.8610   ZY=     4.1117
   XZ=     7.8706   YZ=     5.4043   ZZ=    16.8218
   Eigenvalues:    10.7716    22.3978    37.3610
 22  H    Isotropic =    27.4295   Anisotropy =     4.7186
   XX=    25.9938   YX=     0.6887   ZX=     1.8357
   XY=    -0.4481   YY=    26.5374   ZY=    -1.4139
   XZ=     1.6493   YZ=    -0.2605   ZZ=    29.7572
   Eigenvalues:    25.1728    26.5404    30.5752
 23  H    Isotropic =    27.3901   Anisotropy =     3.6992
   XX=    28.4292   YX=     0.3000   ZX=    -0.6985
   XY=    -0.9748   YY=    29.0097   ZY=     1.4640
   XZ=    -0.8520   YZ=     1.9675   ZZ=    24.7314
   Eigenvalues:    24.0397    28.2744    29.8562
 24  H    Isotropic =    29.8407   Anisotropy =    14.8462
   XX=    34.6989   YX=    -4.4941   ZX=    -2.1730
   XY=    -5.3819   YY=    30.3227   ZY=     5.9304
   XZ=    -3.4152   YZ=     4.4235   ZZ=    24.5005
   Eigenvalues:    21.4716    28.3123    39.7382
 25  H    Isotropic =    29.0787   Anisotropy =     4.7775
   XX=    27.0986   YX=     2.3160   ZX=     0.2115
   XY=     4.1800   YY=    30.2137   ZY=    -0.3163
   XZ=    -0.4168   YZ=     0.7120   ZZ=    29.9239
   Eigenvalues:    25.0464    29.9260    32.2637
 26  H    Isotropic =    29.3463   Anisotropy =     4.4070
   XX=    31.0224   YX=    -0.8865   ZX=    -0.8167
   XY=    -0.0056   YY=    29.4038   ZY=    -2.8016
   XZ=    -2.5433   YZ=    -3.5359   ZZ=    27.6126
   Eigenvalues:    24.7955    30.9591    32.2843
 27  H    Isotropic =    24.8744   Anisotropy =    12.7727
   XX=    22.7744   YX=     1.8528   ZX=    -1.9795
   XY=     5.0910   YY=    25.3328   ZY=    -4.5489
   XZ=    -6.2829   YZ=    -4.8227   ZZ=    26.5160
   Eigenvalues:    20.0215    21.2122    33.3895
 28  H    Isotropic =    26.7006   Anisotropy =     6.2592
   XX=    25.3290   YX=     0.4443   ZX=     0.8326
   XY=    -0.7068   YY=    27.8542   ZY=    -2.5896
   XZ=     1.2474   YZ=    -4.0960   ZZ=    26.9187
   Eigenvalues:    23.6957    25.5328    30.8734
 29  H    Isotropic =    30.5150   Anisotropy =     5.1223
   XX=    28.3668   YX=     0.2955   ZX=    -3.2328
   XY=     0.2058   YY=    32.4417   ZY=    -1.0685
   XZ=    -3.3768   YZ=    -1.3295   ZZ=    30.7364
   Eigenvalues:    26.0033    31.6118    33.9299
 30  H    Isotropic =    30.0830   Anisotropy =     9.8634
   XX=    28.2638   YX=    -0.7774   ZX=    -0.4755
   XY=    -0.2684   YY=    34.7347   ZY=     3.9535
   XZ=    -0.2487   YZ=     4.4311   ZZ=    27.2505
   Eigenvalues:    25.3683    28.2220    36.6586
 31  H    Isotropic =    30.3468   Anisotropy =     9.6316
   XX=    34.1973   YX=    -3.1190   ZX=     3.1488
   XY=    -3.4765   YY=    29.3382   ZY=    -0.5675
   XZ=     2.9940   YZ=    -0.0115   ZZ=    27.5049
   Eigenvalues:    25.9403    28.3323    36.7679
 32  H    Isotropic =    23.3171   Anisotropy =    12.0945
   XX=    28.6412   YX=    -4.5561   ZX=     1.4206
   XY=    -5.2389   YY=    22.3739   ZY=     0.5614
   XZ=     1.0938   YZ=     0.4968   ZZ=    18.9362
   Eigenvalues:    18.1451    20.4260    31.3801
 33  H    Isotropic =    24.0257   Anisotropy =     7.1640
   XX=    22.7981   YX=    -0.3257   ZX=     0.8541
   XY=     0.2150   YY=    26.4480   ZY=     3.8565
   XZ=     1.2745   YZ=     3.5405   ZZ=    22.8308
   Eigenvalues:    20.1858    23.0895    28.8017
 34  H    Isotropic =    24.5297   Anisotropy =     5.6471
   XX=    26.7182   YX=    -2.0252   ZX=     1.2248
   XY=    -2.6599   YY=    24.7849   ZY=     0.9637
   XZ=     0.8070   YZ=     1.2641   ZZ=    22.0860
   Eigenvalues:    21.0525    24.2421    28.2944
 End of Minotr Frequency-dependent properties file   721 does not exist.
 End of Minotr Frequency-dependent properties file   722 does not exist.

 **********************************************************************

            Population analysis using the SCF density.

 **********************************************************************

 Orbital symmetries:
       Occupied  (A) (A) (A) (A) (A) (A) (A) (A) (A) (A) (A) (A)
                 (A) (A) (A) (A) (A) (A) (A) (A) (A) (A) (A) (A)
                 (A) (A) (A) (A) (A) (A) (A) (A) (A) (A) (A) (A)
                 (A) (A) (A) (A) (A) (A) (A) (A) (A) (A) (A) (A)
                 (A) (A) (A) (A) (A) (A) (A) (A) (A) (A) (A) (A)
                 (A) (A) (A) (A) (A) (A) (A) (A) (A) (A) (A) (A)
                 (A) (A) (A) (A) (A) (A)
       Virtual   (A) (A) (A) (A) (A) (A) (A) (A) (A) (A) (A) (A)
                 (A) (A) (A) (A) (A) (A) (A) (A) (A) (A) (A) (A)
                 (A) (A) (A) (A) (A) (A) (A) (A) (A) (A) (A) (A)
                 (A) (A) (A) (A) (A) (A) (A) (A) (A) (A) (A) (A)
                 (A) (A) (A) (A) (A) (A) (A) (A) (A) (A) (A) (A)
                 (A) (A) (A) (A) (A) (A) (A) (A) (A) (A) (A) (A)
                 (A) (A) (A) (A) (A) (A) (A) (A) (A) (A) (A) (A)
                 (A) (A) (A) (A) (A) (A) (A) (A) (A) (A) (A) (A)
                 (A) (A) (A) (A) (A) (A) (A) (A) (A) (A) (A) (A)
                 (A) (A) (A) (A) (A) (A) (A) (A) (A) (A) (A) (A)
                 (A) (A) (A) (A) (A) (A) (A) (A) (A) (A) (A) (A)
                 (A) (A) (A) (A) (A) (A) (A) (A) (A) (A) (A) (A)
                 (A) (A) (A) (A) (A) (A) (A) (A) (A) (A) (A) (A)
                 (A) (A) (A) (A) (A) (A) (A) (A) (A) (A) (A) (A)
                 (A) (A) (A) (A) (A) (A) (A) (A) (A) (A) (A) (A)
                 (A) (A) (A) (A) (A) (A) (A) (A) (A) (A) (A) (A)
                 (A) (A) (A) (A) (A) (A) (A) (A) (A) (A) (A) (A)
                 (A) (A) (A) (A) (A) (A) (A) (A) (A) (A) (A) (A)
                 (A) (A) (A) (A) (A) (A) (A) (A) (A) (A) (A) (A)
                 (A) (A) (A) (A) (A) (A) (A) (A) (A) (A) (A) (A)
                 (A) (A) (A) (A) (A) (A) (A) (A) (A) (A) (A) (A)
                 (A) (A) (A) (A) (A) (A) (A) (A) (A) (A) (A) (A)
                 (A) (A) (A) (A) (A) (A) (A) (A) (A) (A) (A) (A)
                 (A) (A) (A) (A) (A) (A) (A) (A) (A) (A) (A) (A)
                 (A) (A) (A) (A) (A) (A) (A) (A) (A) (A) (A) (A)
                 (A) (A) (A) (A) (A) (A) (A) (A) (A) (A) (A) (A)
                 (A) (A) (A) (A) (A) (A) (A) (A) (A) (A) (A) (A)
                 (A) (A) (A) (A) (A) (A) (A) (A) (A) (A) (A) (A)
                 (A) (A) (A) (A) (A) (A) (A) (A) (A) (A) (A) (A)
                 (A) (A) (A) (A) (A) (A) (A) (A) (A) (A) (A) (A)
                 (A) (A) (A) (A) (A) (A) (A) (A) (A) (A) (A) (A)
                 (A) (A) (A) (A) (A) (A) (A) (A) (A) (A) (A) (A)
                 (A) (A) (A) (A) (A) (A) (A) (A) (A) (A) (A) (A)
                 (A) (A) (A) (A) (A) (A) (A) (A) (A) (A) (A) (A)
                 (A) (A) (A) (A) (A) (A) (A) (A) (A) (A) (A) (A)
                 (A) (A) (A) (A) (A) (A) (A) (A) (A) (A) (A) (A)
                 (A) (A) (A) (A) (A) (A) (A) (A) (A) (A) (A) (A)
                 (A) (A) (A) (A) (A) (A) (A) (A) (A) (A) (A) (A)
                 (A) (A) (A) (A) (A) (A) (A) (A) (A) (A) (A) (A)
                 (A) (A) (A) (A) (A) (A) (A) (A) (A) (A) (A) (A)
                 (A) (A) (A) (A) (A) (A) (A) (A) (A) (A) (A) (A)
                 (A) (A) (A) (A) (A) (A) (A) (A) (A) (A) (A) (A)
                 (A) (A) (A) (A) (A) (A) (A) (A) (A) (A) (A) (A)
                 (A) (A) (A) (A) (A) (A) (A) (A) (A) (A) (A) (A)
                 (A) (A) (A) (A) (A) (A) (A) (A) (A) (A) (A) (A)
                 (A) (A) (A) (A) (A) (A) (A) (A) (A) (A) (A) (A)
 The electronic state is 1-A.
 Alpha  occ. eigenvalues -- -101.56004 -19.18143 -19.17880 -19.16302 -19.13450
 Alpha  occ. eigenvalues --  -19.12680 -14.30817 -10.31870 -10.28305 -10.25940
 Alpha  occ. eigenvalues --  -10.24129 -10.23872 -10.23289 -10.21143 -10.20749
 Alpha  occ. eigenvalues --  -10.19742 -10.19729 -10.18695 -10.18661 -10.16793
 Alpha  occ. eigenvalues --   -9.47456  -7.23892  -7.22952  -7.22925  -1.12312
 Alpha  occ. eigenvalues --   -1.11322  -1.07702  -1.03997  -1.03255  -0.92524
 Alpha  occ. eigenvalues --   -0.90187  -0.85122  -0.81929  -0.78616  -0.77217
 Alpha  occ. eigenvalues --   -0.74274  -0.71606  -0.68336  -0.64962  -0.62364
 Alpha  occ. eigenvalues --   -0.61699  -0.60114  -0.59122  -0.55991  -0.53358
 Alpha  occ. eigenvalues --   -0.52217  -0.51063  -0.50796  -0.50249  -0.48422
 Alpha  occ. eigenvalues --   -0.47945  -0.47181  -0.46002  -0.45671  -0.44581
 Alpha  occ. eigenvalues --   -0.43716  -0.43295  -0.42198  -0.41533  -0.40685
 Alpha  occ. eigenvalues --   -0.40546  -0.39856  -0.39105  -0.38981  -0.38206
 Alpha  occ. eigenvalues --   -0.37599  -0.36999  -0.35565  -0.34274  -0.33928
 Alpha  occ. eigenvalues --   -0.32646  -0.32416  -0.30411  -0.29901  -0.29796
 Alpha  occ. eigenvalues --   -0.28484  -0.25842  -0.23616
 Alpha virt. eigenvalues --   -0.06258  -0.02181  -0.01129  -0.00157   0.00828
 Alpha virt. eigenvalues --    0.01016   0.01272   0.01872   0.02564   0.02877
 Alpha virt. eigenvalues --    0.03416   0.03578   0.04618   0.04733   0.05590
 Alpha virt. eigenvalues --    0.05757   0.06051   0.06530   0.07015   0.07532
 Alpha virt. eigenvalues --    0.07910   0.08483   0.08563   0.08659   0.09314
 Alpha virt. eigenvalues --    0.09616   0.10284   0.10460   0.10728   0.11426
 Alpha virt. eigenvalues --    0.12066   0.12346   0.12543   0.13236   0.13299
 Alpha virt. eigenvalues --    0.13894   0.14332   0.14584   0.14933   0.15374
 Alpha virt. eigenvalues --    0.15464   0.15598   0.15838   0.16173   0.16873
 Alpha virt. eigenvalues --    0.17060   0.17306   0.17554   0.17718   0.18163
 Alpha virt. eigenvalues --    0.18239   0.18480   0.18860   0.19170   0.19566
 Alpha virt. eigenvalues --    0.20093   0.20193   0.20464   0.20777   0.21210
 Alpha virt. eigenvalues --    0.21747   0.22129   0.22362   0.22934   0.23006
 Alpha virt. eigenvalues --    0.23094   0.23463   0.23693   0.24522   0.24800
 Alpha virt. eigenvalues --    0.25060   0.25778   0.25870   0.26263   0.26692
 Alpha virt. eigenvalues --    0.26932   0.27373   0.27600   0.27896   0.28084
 Alpha virt. eigenvalues --    0.28647   0.28812   0.29063   0.29854   0.30254
 Alpha virt. eigenvalues --    0.30479   0.30528   0.30911   0.31188   0.31582
 Alpha virt. eigenvalues --    0.32408   0.32534   0.32955   0.33175   0.33846
 Alpha virt. eigenvalues --    0.34013   0.34701   0.35173   0.35473   0.35905
 Alpha virt. eigenvalues --    0.36093   0.36471   0.37624   0.38152   0.38545
 Alpha virt. eigenvalues --    0.39005   0.39574   0.40068   0.40732   0.40914
 Alpha virt. eigenvalues --    0.41515   0.42472   0.42917   0.43424   0.44351
 Alpha virt. eigenvalues --    0.45263   0.45838   0.46079   0.46857   0.47287
 Alpha virt. eigenvalues --    0.48783   0.49030   0.49529   0.50163   0.51393
 Alpha virt. eigenvalues --    0.51624   0.52252   0.52687   0.53122   0.53282
 Alpha virt. eigenvalues --    0.54434   0.54577   0.54720   0.55657   0.56900
 Alpha virt. eigenvalues --    0.57422   0.57873   0.58422   0.59493   0.59917
 Alpha virt. eigenvalues --    0.60476   0.60540   0.61684   0.61855   0.62079
 Alpha virt. eigenvalues --    0.62816   0.63898   0.64558   0.64741   0.64914
 Alpha virt. eigenvalues --    0.65204   0.65702   0.66503   0.67114   0.67664
 Alpha virt. eigenvalues --    0.68092   0.68774   0.69080   0.69328   0.70314
 Alpha virt. eigenvalues --    0.70604   0.71381   0.71754   0.72205   0.73081
 Alpha virt. eigenvalues --    0.73639   0.74342   0.74453   0.75126   0.76275
 Alpha virt. eigenvalues --    0.76764   0.77261   0.78185   0.78548   0.78611
 Alpha virt. eigenvalues --    0.78970   0.79860   0.80040   0.81167   0.81920
 Alpha virt. eigenvalues --    0.82347   0.83061   0.83891   0.84351   0.85629
 Alpha virt. eigenvalues --    0.86809   0.87822   0.88318   0.88795   0.90329
 Alpha virt. eigenvalues --    0.90915   0.91577   0.92353   0.93611   0.94940
 Alpha virt. eigenvalues --    0.96711   0.97069   0.97793   0.98423   0.99232
 Alpha virt. eigenvalues --    0.99508   1.00446   1.00996   1.02084   1.02847
 Alpha virt. eigenvalues --    1.03358   1.03935   1.04445   1.05131   1.05751
 Alpha virt. eigenvalues --    1.07762   1.07985   1.09228   1.10265   1.10825
 Alpha virt. eigenvalues --    1.11377   1.11969   1.12575   1.13239   1.14375
 Alpha virt. eigenvalues --    1.14574   1.15014   1.15854   1.16127   1.16952
 Alpha virt. eigenvalues --    1.18115   1.18480   1.19482   1.19564   1.20277
 Alpha virt. eigenvalues --    1.20709   1.22167   1.23293   1.23556   1.24246
 Alpha virt. eigenvalues --    1.24873   1.26932   1.27380   1.28844   1.29489
 Alpha virt. eigenvalues --    1.30355   1.30770   1.31147   1.32623   1.33180
 Alpha virt. eigenvalues --    1.33909   1.34950   1.35390   1.36131   1.36791
 Alpha virt. eigenvalues --    1.37187   1.37836   1.38635   1.40067   1.41137
 Alpha virt. eigenvalues --    1.41531   1.41859   1.42379   1.44637   1.44699
 Alpha virt. eigenvalues --    1.47756   1.48312   1.49573   1.51722   1.52534
 Alpha virt. eigenvalues --    1.52714   1.53790   1.54842   1.56563   1.57037
 Alpha virt. eigenvalues --    1.58481   1.60080   1.61623   1.62156   1.63107
 Alpha virt. eigenvalues --    1.63810   1.66328   1.67709   1.67734   1.69200
 Alpha virt. eigenvalues --    1.69592   1.71773   1.72316   1.73149   1.73822
 Alpha virt. eigenvalues --    1.74552   1.75863   1.77131   1.77912   1.79487
 Alpha virt. eigenvalues --    1.80944   1.82611   1.84306   1.85382   1.87006
 Alpha virt. eigenvalues --    1.89125   1.89657   1.90560   1.91344   1.92758
 Alpha virt. eigenvalues --    1.95218   1.96105   1.96886   1.98804   1.99241
 Alpha virt. eigenvalues --    2.01820   2.04855   2.06155   2.07914   2.09365
 Alpha virt. eigenvalues --    2.09730   2.10891   2.13478   2.14537   2.15960
 Alpha virt. eigenvalues --    2.16808   2.17646   2.18240   2.20656   2.22094
 Alpha virt. eigenvalues --    2.24079   2.24688   2.25119   2.26977   2.28888
 Alpha virt. eigenvalues --    2.29187   2.29901   2.32137   2.33058   2.34555
 Alpha virt. eigenvalues --    2.36384   2.36489   2.37303   2.38384   2.38979
 Alpha virt. eigenvalues --    2.39945   2.40443   2.42684   2.44175   2.45103
 Alpha virt. eigenvalues --    2.47294   2.48341   2.49085   2.49301   2.50947
 Alpha virt. eigenvalues --    2.51701   2.53116   2.55028   2.58504   2.58673
 Alpha virt. eigenvalues --    2.60696   2.63030   2.63192   2.63994   2.64670
 Alpha virt. eigenvalues --    2.64884   2.67458   2.68742   2.69956   2.71714
 Alpha virt. eigenvalues --    2.74308   2.75949   2.77346   2.78989   2.80254
 Alpha virt. eigenvalues --    2.81679   2.83786   2.84517   2.85139   2.86066
 Alpha virt. eigenvalues --    2.87530   2.88706   2.90313   2.91619   2.92914
 Alpha virt. eigenvalues --    2.95002   2.96810   2.97866   2.98779   3.00631
 Alpha virt. eigenvalues --    3.01468   3.05023   3.07055   3.07175   3.09250
 Alpha virt. eigenvalues --    3.10620   3.11019   3.11313   3.15421   3.18237
 Alpha virt. eigenvalues --    3.19325   3.19774   3.23438   3.24676   3.26566
 Alpha virt. eigenvalues --    3.27382   3.28983   3.30384   3.31897   3.32947
 Alpha virt. eigenvalues --    3.33738   3.35347   3.35990   3.37143   3.39134
 Alpha virt. eigenvalues --    3.40179   3.41695   3.42353   3.42904   3.43535
 Alpha virt. eigenvalues --    3.43964   3.45245   3.47446   3.48706   3.49576
 Alpha virt. eigenvalues --    3.49915   3.51016   3.52248   3.53569   3.53866
 Alpha virt. eigenvalues --    3.55512   3.55978   3.56601   3.57145   3.58164
 Alpha virt. eigenvalues --    3.59135   3.59763   3.60525   3.61019   3.61868
 Alpha virt. eigenvalues --    3.64353   3.65665   3.65891   3.66612   3.68938
 Alpha virt. eigenvalues --    3.69669   3.71256   3.72606   3.72716   3.72876
 Alpha virt. eigenvalues --    3.75295   3.76727   3.77206   3.77953   3.78527
 Alpha virt. eigenvalues --    3.80873   3.81703   3.82470   3.84130   3.85510
 Alpha virt. eigenvalues --    3.86519   3.88640   3.89574   3.92058   3.94896
 Alpha virt. eigenvalues --    3.96802   3.97444   4.00320   4.03300   4.06090
 Alpha virt. eigenvalues --    4.08403   4.09878   4.12085   4.15401   4.16385
 Alpha virt. eigenvalues --    4.17670   4.24249   4.25262   4.25905   4.28505
 Alpha virt. eigenvalues --    4.34914   4.39601   4.42937   4.43985   4.48661
 Alpha virt. eigenvalues --    4.55403   4.58437   4.59953   4.73202   4.77218
 Alpha virt. eigenvalues --    4.82567   4.98201   5.02076   5.05741   5.07711
 Alpha virt. eigenvalues --    5.08903   5.16264   5.18001   5.19729   5.25108
 Alpha virt. eigenvalues --    5.25583   5.27078   5.43158   5.45897   5.46960
 Alpha virt. eigenvalues --    5.54997   5.60678   5.63125   5.77909   5.81494
 Alpha virt. eigenvalues --    5.87851   6.02224   6.10583   6.75466   6.81216
 Alpha virt. eigenvalues --    6.83871   6.85405   6.91379   6.95691   6.95946
 Alpha virt. eigenvalues --    6.99430   7.00130   7.01602   7.04402   7.07171
 Alpha virt. eigenvalues --    7.08472   7.10321   7.13828   7.14368   7.20597
 Alpha virt. eigenvalues --    7.22062   7.29554   7.32220   7.34114   7.35549
 Alpha virt. eigenvalues --    7.38693   7.39903   7.53667   9.89927  23.66050
 Alpha virt. eigenvalues --   23.91549  23.94563  23.95636  23.98912  24.00752
 Alpha virt. eigenvalues --   24.01658  24.05067  24.07396  24.11825  24.13395
 Alpha virt. eigenvalues --   24.16870  24.32759  25.87641  26.28356  27.40690
 Alpha virt. eigenvalues --   35.77436  49.92564  50.00482  50.02160  50.02946
 Alpha virt. eigenvalues --   50.06917 215.90133
          Condensed to atoms (all electrons):
              1          2          3          4          5          6
     1  O    8.294492   0.423996  -0.034227  -0.038612   0.000872   0.014350
     2  C    0.423996   9.757068  -0.095743  -0.397546  -0.059957  -0.166162
     3  C   -0.034227  -0.095743   7.659810   0.405976  -0.156333   0.059456
     4  C   -0.038612  -0.397546   0.405976   6.835865   0.235827   0.049702
     5  N    0.000872  -0.059957  -0.156333   0.235827   7.169663  -0.137932
     6  C    0.014350  -0.166162   0.059456   0.049702  -0.137932  11.257998
     7  C   -0.001351  -0.006504   0.111340   0.267910   0.066724  -3.164665
     8  O    0.000011   0.000500   0.004148  -0.007327   0.019797  -0.003371
     9  C   -0.003890  -0.029825  -0.073192  -0.254976  -0.060483   1.185547
    10  C   -0.001518  -0.024640  -0.031240  -0.289748   0.008872  -0.203931
    11  O   -0.000006   0.000680   0.001141   0.005261   0.001505  -0.015742
    12  O   -0.000003   0.000583  -0.000361   0.004455   0.000103  -0.010409
    13  C   -0.014215   0.024610  -0.281095  -0.594387   0.382236  -3.637827
    14  C    0.005319   0.053515  -0.018472  -0.243960  -0.007728   0.323266
    15  O    0.019773  -0.151744   0.111778   0.248572  -0.090788  -0.041531
    16  C    0.010685  -0.132854   1.125450  -0.808585   0.027049   0.085356
    17  C   -0.032409  -1.183329  -0.931638   0.326015   0.041134  -0.088399
    18  Cl   0.000007   0.054981   0.088769  -0.043475   0.000202   0.000929
    19  C    0.004478  -0.245897  -1.026778  -0.430446  -0.012793   0.001996
    20  C   -0.338665  -1.482746  -1.023053   0.218985   0.007780  -0.063925
    21  H    0.266751  -0.037797  -0.011994   0.003252   0.001100  -0.003943
    22  H   -0.000026  -0.002440  -0.000715  -0.024679  -0.052639   0.514811
    23  H    0.000005  -0.000746  -0.000248   0.003574   0.007931  -0.016982
    24  H   -0.000002  -0.000439   0.000936   0.003140   0.018589  -0.097703
    25  H    0.000226  -0.003837  -0.006083  -0.006670  -0.002908  -0.013488
    26  H    0.000014   0.001430  -0.001738  -0.001948  -0.002522  -0.000415
    27  H    0.000000  -0.000054   0.000011  -0.000787  -0.000153   0.000259
    28  H    0.000536   0.015710  -0.006840  -0.021295  -0.001240  -0.081242
    29  H    0.000074   0.002362  -0.000830  -0.003266  -0.001749  -0.010519
    30  H    0.000123  -0.004792   0.005002  -0.014548   0.001140  -0.006754
    31  H    0.000020   0.000417  -0.001013  -0.005400   0.000317   0.014741
    32  H   -0.000359   0.025047  -0.005352  -0.016156   0.010567  -0.002601
    33  H   -0.000694   0.027779  -0.010858  -0.000392  -0.000041  -0.000028
    34  H    0.002104  -0.163926   0.007055   0.009948   0.000038   0.000117
              7          8          9         10         11         12
     1  O   -0.001351   0.000011  -0.003890  -0.001518  -0.000006  -0.000003
     2  C   -0.006504   0.000500  -0.029825  -0.024640   0.000680   0.000583
     3  C    0.111340   0.004148  -0.073192  -0.031240   0.001141  -0.000361
     4  C    0.267910  -0.007327  -0.254976  -0.289748   0.005261   0.004455
     5  N    0.066724   0.019797  -0.060483   0.008872   0.001505   0.000103
     6  C   -3.164665  -0.003371   1.185547  -0.203931  -0.015742  -0.010409
     7  C    8.651394   0.118907  -1.248388  -0.114350  -0.012039   0.020595
     8  O    0.118907   8.234433   0.002960  -0.061912  -0.000720   0.007913
     9  C   -1.248388   0.002960   7.359834  -0.929732   0.250498  -0.038889
    10  C   -0.114350  -0.061912  -0.929732   6.491064  -0.010661   0.394567
    11  O   -0.012039  -0.000720   0.250498  -0.010661   8.009139  -0.077125
    12  O    0.020595   0.007913  -0.038889   0.394567  -0.077125   8.247044
    13  C    1.220336  -0.014855  -0.434415   0.159289   0.003318   0.025997
    14  C   -0.510040   0.011908   0.043216  -0.005148   0.002633  -0.013606
    15  O    0.024132   0.000373  -0.006531   0.006150   0.000209  -0.000197
    16  C    0.050367  -0.001115  -0.029733  -0.022289  -0.000638  -0.000187
    17  C   -0.009751  -0.001593  -0.008268   0.000603   0.000346  -0.000072
    18  Cl   0.000296  -0.000012   0.000717  -0.000049   0.000000   0.000000
    19  C   -0.000963  -0.000064  -0.011120  -0.005776  -0.000032   0.000006
    20  C   -0.027610  -0.000084   0.012519   0.001683   0.000220   0.000013
    21  H    0.005043  -0.000010  -0.002741  -0.000676  -0.000003  -0.000001
    22  H   -0.078411  -0.001033   0.000224  -0.003923   0.000024   0.000109
    23  H    0.488007  -0.053126  -0.060209  -0.007334   0.000140  -0.005720
    24  H    0.136790   0.249859  -0.031427  -0.003930  -0.000113  -0.000401
    25  H   -0.017062   0.009245   0.386360  -0.028886   0.011384  -0.005050
    26  H   -0.030513  -0.012685   0.388760  -0.000389   0.008214  -0.001240
    27  H    0.004547  -0.000352  -0.097125   0.084632   0.259476   0.015527
    28  H    0.013939  -0.000671   0.006335   0.001568  -0.000003  -0.000001
    29  H    0.002908   0.000448   0.007844  -0.001264  -0.000179  -0.000318
    30  H    0.007774  -0.000041  -0.000679   0.000768  -0.000006   0.000011
    31  H   -0.020173   0.000121   0.004530   0.000217   0.000007   0.000062
    32  H    0.002691  -0.000136  -0.000975   0.000262  -0.000004  -0.000002
    33  H   -0.000012   0.000000   0.000006  -0.000001   0.000000   0.000000
    34  H    0.000006   0.000000   0.000007   0.000002   0.000000   0.000000
             13         14         15         16         17         18
     1  O   -0.014215   0.005319   0.019773   0.010685  -0.032409   0.000007
     2  C    0.024610   0.053515  -0.151744  -0.132854  -1.183329   0.054981
     3  C   -0.281095  -0.018472   0.111778   1.125450  -0.931638   0.088769
     4  C   -0.594387  -0.243960   0.248572  -0.808585   0.326015  -0.043475
     5  N    0.382236  -0.007728  -0.090788   0.027049   0.041134   0.000202
     6  C   -3.637827   0.323266  -0.041531   0.085356  -0.088399   0.000929
     7  C    1.220336  -0.510040   0.024132   0.050367  -0.009751   0.000296
     8  O   -0.014855   0.011908   0.000373  -0.001115  -0.001593  -0.000012
     9  C   -0.434415   0.043216  -0.006531  -0.029733  -0.008268   0.000717
    10  C    0.159289  -0.005148   0.006150  -0.022289   0.000603  -0.000049
    11  O    0.003318   0.002633   0.000209  -0.000638   0.000346   0.000000
    12  O    0.025997  -0.013606  -0.000197  -0.000187  -0.000072   0.000000
    13  C    8.599910  -0.087208   0.094622  -0.230532   0.127631  -0.000113
    14  C   -0.087208   5.910312  -0.110409  -0.064773  -0.000999  -0.000135
    15  O    0.094622  -0.110409   8.343200   0.010443  -0.002914  -0.000253
    16  C   -0.230532  -0.064773   0.010443   7.930855   0.218020   0.203344
    17  C    0.127631  -0.000999  -0.002914   0.218020   9.221434  -0.586443
    18  Cl  -0.000113  -0.000135  -0.000253   0.203344  -0.586443  17.074079
    19  C   -0.036114  -0.000979   0.001416  -0.508597  -1.768606   0.254866
    20  C    0.132123   0.026521   0.000718  -1.420440  -0.231956   0.040560
    21  H    0.019358  -0.015910   0.036802   0.006229   0.006823   0.000077
    22  H   -0.048074   0.015975   0.008760   0.006298   0.001323   0.000005
    23  H   -0.033835  -0.000018  -0.002087   0.000965   0.000014   0.000000
    24  H    0.023998  -0.001005  -0.000641  -0.003664   0.000501  -0.000005
    25  H    0.019467  -0.003837   0.010399   0.002687   0.000920   0.000012
    26  H   -0.009766  -0.000912  -0.002295   0.012661   0.000799  -0.000040
    27  H    0.000393  -0.000348  -0.000022   0.000117  -0.000013   0.000000
    28  H    0.492200  -0.031390  -0.059926  -0.010020  -0.001929  -0.000008
    29  H   -0.021103   0.397868   0.000795  -0.000682  -0.000287   0.000000
    30  H   -0.001031   0.393492  -0.003681   0.000657   0.000100   0.000000
    31  H   -0.068884   0.447601   0.007393  -0.000212  -0.000006   0.000000
    32  H    0.002084   0.000262   0.000126   0.414730  -0.097019  -0.011253
    33  H    0.000082   0.000004   0.000006   0.012925  -0.065488  -0.003279
    34  H   -0.000161  -0.000046  -0.000050  -0.021814   0.048864  -0.000949
             19         20         21         22         23         24
     1  O    0.004478  -0.338665   0.266751  -0.000026   0.000005  -0.000002
     2  C   -0.245897  -1.482746  -0.037797  -0.002440  -0.000746  -0.000439
     3  C   -1.026778  -1.023053  -0.011994  -0.000715  -0.000248   0.000936
     4  C   -0.430446   0.218985   0.003252  -0.024679   0.003574   0.003140
     5  N   -0.012793   0.007780   0.001100  -0.052639   0.007931   0.018589
     6  C    0.001996  -0.063925  -0.003943   0.514811  -0.016982  -0.097703
     7  C   -0.000963  -0.027610   0.005043  -0.078411   0.488007   0.136790
     8  O   -0.000064  -0.000084  -0.000010  -0.001033  -0.053126   0.249859
     9  C   -0.011120   0.012519  -0.002741   0.000224  -0.060209  -0.031427
    10  C   -0.005776   0.001683  -0.000676  -0.003923  -0.007334  -0.003930
    11  O   -0.000032   0.000220  -0.000003   0.000024   0.000140  -0.000113
    12  O    0.000006   0.000013  -0.000001   0.000109  -0.005720  -0.000401
    13  C   -0.036114   0.132123   0.019358  -0.048074  -0.033835   0.023998
    14  C   -0.000979   0.026521  -0.015910   0.015975  -0.000018  -0.001005
    15  O    0.001416   0.000718   0.036802   0.008760  -0.002087  -0.000641
    16  C   -0.508597  -1.420440   0.006229   0.006298   0.000965  -0.003664
    17  C   -1.768606  -0.231956   0.006823   0.001323   0.000014   0.000501
    18  Cl   0.254866   0.040560   0.000077   0.000005   0.000000  -0.000005
    19  C    9.695403   0.359656  -0.004366   0.000091  -0.000004   0.000004
    20  C    0.359656   9.248936   0.045166  -0.000158  -0.000036   0.000057
    21  H   -0.004366   0.045166   0.295240   0.000007  -0.000007   0.000001
    22  H    0.000091  -0.000158   0.000007   0.558506  -0.005255  -0.000297
    23  H   -0.000004  -0.000036  -0.000007  -0.005255   0.540303   0.005544
    24  H    0.000004   0.000057   0.000001  -0.000297   0.005544   0.400292
    25  H   -0.000072   0.000433  -0.000176  -0.000059  -0.002266  -0.000502
    26  H    0.000831  -0.000824  -0.000013  -0.000347   0.005223   0.001626
    27  H    0.000008  -0.000026   0.000000  -0.000001  -0.000036  -0.000015
    28  H    0.000372   0.001570  -0.000799  -0.012364  -0.000287  -0.000031
    29  H    0.000071   0.000051   0.000124  -0.000278  -0.003636  -0.000073
    30  H   -0.000059  -0.000756  -0.000251  -0.000258   0.000374   0.000004
    31  H   -0.000008   0.000080  -0.000029  -0.000309   0.000227  -0.000017
    32  H    0.021464  -0.007422  -0.000002   0.000033  -0.000005   0.000064
    33  H    0.417808  -0.040402   0.000012   0.000000   0.000000   0.000000
    34  H   -0.100078   0.569786   0.000953   0.000000   0.000000   0.000000
             25         26         27         28         29         30
     1  O    0.000226   0.000014   0.000000   0.000536   0.000074   0.000123
     2  C   -0.003837   0.001430  -0.000054   0.015710   0.002362  -0.004792
     3  C   -0.006083  -0.001738   0.000011  -0.006840  -0.000830   0.005002
     4  C   -0.006670  -0.001948  -0.000787  -0.021295  -0.003266  -0.014548
     5  N   -0.002908  -0.002522  -0.000153  -0.001240  -0.001749   0.001140
     6  C   -0.013488  -0.000415   0.000259  -0.081242  -0.010519  -0.006754
     7  C   -0.017062  -0.030513   0.004547   0.013939   0.002908   0.007774
     8  O    0.009245  -0.012685  -0.000352  -0.000671   0.000448  -0.000041
     9  C    0.386360   0.388760  -0.097125   0.006335   0.007844  -0.000679
    10  C   -0.028886  -0.000389   0.084632   0.001568  -0.001264   0.000768
    11  O    0.011384   0.008214   0.259476  -0.000003  -0.000179  -0.000006
    12  O   -0.005050  -0.001240   0.015527  -0.000001  -0.000318   0.000011
    13  C    0.019467  -0.009766   0.000393   0.492200  -0.021103  -0.001031
    14  C   -0.003837  -0.000912  -0.000348  -0.031390   0.397868   0.393492
    15  O    0.010399  -0.002295  -0.000022  -0.059926   0.000795  -0.003681
    16  C    0.002687   0.012661   0.000117  -0.010020  -0.000682   0.000657
    17  C    0.000920   0.000799  -0.000013  -0.001929  -0.000287   0.000100
    18  Cl   0.000012  -0.000040   0.000000  -0.000008   0.000000   0.000000
    19  C   -0.000072   0.000831   0.000008   0.000372   0.000071  -0.000059
    20  C    0.000433  -0.000824  -0.000026   0.001570   0.000051  -0.000756
    21  H   -0.000176  -0.000013   0.000000  -0.000799   0.000124  -0.000251
    22  H   -0.000059  -0.000347  -0.000001  -0.012364  -0.000278  -0.000258
    23  H   -0.002266   0.005223  -0.000036  -0.000287  -0.003636   0.000374
    24  H   -0.000502   0.001626  -0.000015  -0.000031  -0.000073   0.000004
    25  H    0.497715  -0.029372  -0.000980   0.000106  -0.000584  -0.000010
    26  H   -0.029372   0.492284   0.000111   0.000025   0.000239   0.000009
    27  H   -0.000980   0.000111   0.384244   0.000000   0.000009   0.000000
    28  H    0.000106   0.000025   0.000000   0.569956   0.006159  -0.007509
    29  H   -0.000584   0.000239   0.000009   0.006159   0.526860  -0.027153
    30  H   -0.000010   0.000009   0.000000  -0.007509  -0.027153   0.528148
    31  H    0.000017  -0.000022   0.000000  -0.003718  -0.026437  -0.023728
    32  H   -0.000014   0.000110   0.000000   0.000002   0.000000   0.000000
    33  H    0.000000   0.000000   0.000000   0.000000   0.000000   0.000000
    34  H    0.000000   0.000000   0.000000   0.000000   0.000000   0.000000
             31         32         33         34
     1  O    0.000020  -0.000359  -0.000694   0.002104
     2  C    0.000417   0.025047   0.027779  -0.163926
     3  C   -0.001013  -0.005352  -0.010858   0.007055
     4  C   -0.005400  -0.016156  -0.000392   0.009948
     5  N    0.000317   0.010567  -0.000041   0.000038
     6  C    0.014741  -0.002601  -0.000028   0.000117
     7  C   -0.020173   0.002691  -0.000012   0.000006
     8  O    0.000121  -0.000136   0.000000   0.000000
     9  C    0.004530  -0.000975   0.000006   0.000007
    10  C    0.000217   0.000262  -0.000001   0.000002
    11  O    0.000007  -0.000004   0.000000   0.000000
    12  O    0.000062  -0.000002   0.000000   0.000000
    13  C   -0.068884   0.002084   0.000082  -0.000161
    14  C    0.447601   0.000262   0.000004  -0.000046
    15  O    0.007393   0.000126   0.000006  -0.000050
    16  C   -0.000212   0.414730   0.012925  -0.021814
    17  C   -0.000006  -0.097019  -0.065488   0.048864
    18  Cl   0.000000  -0.011253  -0.003279  -0.000949
    19  C   -0.000008   0.021464   0.417808  -0.100078
    20  C    0.000080  -0.007422  -0.040402   0.569786
    21  H   -0.000029  -0.000002   0.000012   0.000953
    22  H   -0.000309   0.000033   0.000000   0.000000
    23  H    0.000227  -0.000005   0.000000   0.000000
    24  H   -0.000017   0.000064   0.000000   0.000000
    25  H    0.000017  -0.000014   0.000000   0.000000
    26  H   -0.000022   0.000110   0.000000   0.000000
    27  H    0.000000   0.000000   0.000000   0.000000
    28  H   -0.003718   0.000002   0.000000   0.000000
    29  H   -0.026437   0.000000   0.000000   0.000000
    30  H   -0.023728   0.000000   0.000000   0.000000
    31  H    0.509297   0.000000   0.000000   0.000000
    32  H    0.000000   0.497351  -0.000087   0.000044
    33  H    0.000000  -0.000087   0.516312  -0.004829
    34  H    0.000000   0.000044  -0.004829   0.518201
 Mulliken atomic charges:
              1
     1  O   -0.577860
     2  C   -0.197700
     3  C    0.136931
     4  C    0.585721
     5  N   -0.414180
     6  C    0.259044
     7  C    0.048128
     8  O   -0.501517
     9  C   -0.326763
    10  C    0.597721
    11  O   -0.436921
    12  O   -0.563401
    13  C    0.185962
    14  C   -0.514971
    15  O   -0.452597
    16  C   -0.862702
    17  C    1.016594
    18  Cl  -0.072829
    19  C   -0.605716
    20  C   -0.028755
    21  H    0.391781
    22  H    0.125102
    23  H    0.139531
    24  H    0.298861
    25  H    0.182887
    26  H    0.182706
    27  H    0.350580
    28  H    0.130795
    29  H    0.152549
    30  H    0.153653
    31  H    0.164909
    32  H    0.166550
    33  H    0.151178
    34  H    0.134728
 Sum of Mulliken atomic charges =   0.00000
 Mulliken charges with hydrogens summed into heavy atoms:
              1
     1  O   -0.186079
     2  C   -0.197700
     3  C    0.136931
     4  C    0.585721
     5  N   -0.414180
     6  C    0.384146
     7  C    0.187659
     8  O   -0.202655
     9  C    0.038830
    10  C    0.597721
    11  O   -0.086341
    12  O   -0.563401
    13  C    0.316756
    14  C   -0.043860
    15  O   -0.452597
    16  C   -0.696151
    17  C    1.016594
    18  Cl  -0.072829
    19  C   -0.454538
    20  C    0.105973
 Sum of Mulliken charges with hydrogens summed into heavy atoms =   0.00000
 Electronic spatial extent (au):  <R**2>=           7225.6335
 Charge=              0.0000 electrons
 Dipole moment (field-independent basis, Debye):
    X=              0.4196    Y=              3.7500    Z=              1.9207  Tot=              4.2341
 Quadrupole moment (field-independent basis, Debye-Ang):
   XX=           -142.9045   YY=           -117.9401   ZZ=           -123.4898
   XY=             -6.9337   XZ=             -1.7128   YZ=             -9.5272
 Traceless Quadrupole moment (field-independent basis, Debye-Ang):
   XX=            -14.7931   YY=             10.1714   ZZ=              4.6217
   XY=             -6.9337   XZ=             -1.7128   YZ=             -9.5272
 Octapole moment (field-independent basis, Debye-Ang**2):
  XXX=            113.9379  YYY=            -10.9025  ZZZ=             25.4885  XYY=            -58.0262
  XXY=             56.2894  XXZ=             53.6409  XZZ=            -25.4207  YZZ=            -11.8671
  YYZ=              3.8773  XYZ=             32.6057
 Hexadecapole moment (field-independent basis, Debye-Ang**3):
 XXXX=          -6935.2348 YYYY=          -1993.5950 ZZZZ=           -927.7816 XXXY=            -38.4128
 XXXZ=             73.0404 YYYX=             36.9094 YYYZ=            -79.5351 ZZZX=           -108.0525
 ZZZY=            -74.4714 XXYY=          -1393.1698 XXZZ=          -1158.3693 YYZZ=           -449.5197
 XXYZ=           -126.1700 YYXZ=            -95.7198 ZZXY=             55.6726
 N-N= 1.702465806980D+03 E-N=-6.684253217040D+03  KE= 1.390541949989D+03
 1\1\GINC-PROD2-0114\SP\RB3LYP\6-311+G(2d,p)\C13H14Cl1N1O5\YUHENG\26-Ma
 r-2019\0\\# b3lyp/6-311+G(2d,p) nmr guess=read geom=check integral(ult
 rafinegrid) scrf=(iefpcm,read,solvent=methanol)\\Candidate Structure: 
 1b, Conformer: 6, NMR calculation with methanol solvation\\0,1\O,0,1.7
 474189194,2.6888178474,1.218881142\C,0,2.2555811526,1.523964896,0.7630
 058355\C,0,1.5783304144,0.6263831263,-0.0841087602\C,0,0.2141340576,0.
 8610074636,-0.5828588522\N,0,-0.3970731385,0.169166439,-1.461734042\C,
 0,-1.7700674107,0.6967076832,-1.5272990851\C,0,-2.7390546569,-0.320249
 8552,-0.9019950092\O,0,-2.9133865787,-1.4231536103,-1.775160496\C,0,-2
 .2928741894,-0.8125531883,0.4736531145\C,0,-3.4057212669,-1.5332747342
 ,1.1953154901\O,0,-2.9361748949,-2.4023904323,2.0974287089\O,0,-4.5890
 887891,-1.342633441,1.0185432972\C,0,-1.6626480703,2.0726869137,-0.838
 5279669\C,0,-2.8118809894,2.5687549268,0.0107785346\O,0,-0.4679048149,
 1.9039042112,-0.0235782306\C,0,2.2196913102,-0.553915366,-0.4934294528
 \C,0,3.5038800395,-0.8292555386,-0.0690250235\Cl,0,4.2893385242,-2.304
 2506058,-0.5821125132\C,0,4.1857386363,0.0558468685,0.7705538459\C,0,3
 .5602552019,1.22089071,1.1783191116\H,0,0.8374036534,2.8214208968,0.90
 03772155\H,0,-2.0748574972,0.8175988422,-2.5714272704\H,0,-3.728782449
 ,0.1411416884,-0.8194009724\H,0,-2.0423799047,-1.8230835699,-1.9467094
 172\H,0,-1.9733289517,0.012560027,1.1239054253\H,0,-1.4318857013,-1.48
 16943281,0.3798352383\H,0,-3.6916103838,-2.8143861277,2.5670338269\H,0
 ,-1.4060030848,2.8248138314,-1.5946238427\H,0,-3.0688398027,1.87175172
 82,0.8116371025\H,0,-2.555567529,3.5313097189,0.4591128307\H,0,-3.6930
 045111,2.7128492125,-0.6208068883\H,0,1.686605906,-1.2394902616,-1.145
 156987\H,0,5.1958971884,-0.170869684,1.0993283602\H,0,4.0680140177,1.9
 258532167,1.8297403321\\Version=EM64L-G09RevB.01\State=1-A\HF=-1395.24
 88341\RMSD=5.712e-09\Dipole=0.1650901,1.4753539,0.7556521\Quadrupole=-
 10.9982761,7.5621528,3.4361233,-5.1550131,-1.2734507,-7.0832148\PG=C01
  [X(C13H14Cl1N1O5)]\\@


 THOSE WHO ASPIRE NOT TO GUESS AND DIVINE,
 BUT TO DISCOVER AND KNOW, WHO PROPOSE NOT TO DEVISE 
 MIMIC AND FABULOUS WORLDS OF THEIR OWN, BUT TO 
 EXAMINE AND DISSECT THE NATURE OF THIS VERY WORLD 
 ITSELF, MUST GO TO THE FACTS THEMSELVES FOR EVERYTHING.

                               -- FRANCIS BACON, 1620
 Job cpu time:  0 days  2 hours 37 minutes 57.2 seconds.
 File lengths (MBytes):  RWF=    330 Int=      0 D2E=      0 Chk=     29 Scr=      1
 Normal termination of Gaussian 09 at Tue Mar 26 03:04:08 2019.
