 Entering Gaussian System, Link 0=g09
 Initial command:
 /home/yuheng/proj/yuheng/g09/l1.exe /home/yuheng/proj/yuheng/g09_scratch/Gau-206690.inp -scrdir=/home/yuheng/proj/yuheng/g09_scratch/
 Entering Link 1 = /home/yuheng/proj/yuheng/g09/l1.exe PID=    206691.
  
 Copyright (c) 1988,1990,1992,1993,1995,1998,2003,2009,2010,
            Gaussian, Inc.  All Rights Reserved.
  
 This is part of the Gaussian(R) 09 program.  It is based on
 the Gaussian(R) 03 system (copyright 2003, Gaussian, Inc.),
 the Gaussian(R) 98 system (copyright 1998, Gaussian, Inc.),
 the Gaussian(R) 94 system (copyright 1995, Gaussian, Inc.),
 the Gaussian 92(TM) system (copyright 1992, Gaussian, Inc.),
 the Gaussian 90(TM) system (copyright 1990, Gaussian, Inc.),
 the Gaussian 88(TM) system (copyright 1988, Gaussian, Inc.),
 the Gaussian 86(TM) system (copyright 1986, Carnegie Mellon
 University), and the Gaussian 82(TM) system (copyright 1983,
 Carnegie Mellon University). Gaussian is a federally registered
 trademark of Gaussian, Inc.
  
 This software contains proprietary and confidential information,
 including trade secrets, belonging to Gaussian, Inc.
  
 This software is provided under written license and may be
 used, copied, transmitted, or stored only in accord with that
 written license.
  
 The following legend is applicable only to US Government
 contracts under FAR:
  
                    RESTRICTED RIGHTS LEGEND
  
 Use, reproduction and disclosure by the US Government is
 subject to restrictions as set forth in subparagraphs (a)
 and (c) of the Commercial Computer Software - Restricted
 Rights clause in FAR 52.227-19.
  
 Gaussian, Inc.
 340 Quinnipiac St., Bldg. 40, Wallingford CT 06492
  
  
 ---------------------------------------------------------------
 Warning -- This program may not be used in any manner that
 competes with the business of Gaussian, Inc. or will provide
 assistance to any competitor of Gaussian, Inc.  The licensee
 of this program is prohibited from giving any competitor of
 Gaussian, Inc. access to this program.  By using this program,
 the user acknowledges that Gaussian, Inc. is engaged in the
 business of creating and licensing software in the field of
 computational chemistry and represents and warrants to the
 licensee that it is not a competitor of Gaussian, Inc. and that
 it will not use this program in any manner prohibited above.
 ---------------------------------------------------------------
  

 Cite this work as:
 Gaussian 09, Revision B.01,
 M. J. Frisch, G. W. Trucks, H. B. Schlegel, G. E. Scuseria, 
 M. A. Robb, J. R. Cheeseman, G. Scalmani, V. Barone, B. Mennucci, 
 G. A. Petersson, H. Nakatsuji, M. Caricato, X. Li, H. P. Hratchian, 
 A. F. Izmaylov, J. Bloino, G. Zheng, J. L. Sonnenberg, M. Hada, 
 M. Ehara, K. Toyota, R. Fukuda, J. Hasegawa, M. Ishida, T. Nakajima, 
 Y. Honda, O. Kitao, H. Nakai, T. Vreven, J. A. Montgomery, Jr., 
 J. E. Peralta, F. Ogliaro, M. Bearpark, J. J. Heyd, E. Brothers, 
 K. N. Kudin, V. N. Staroverov, T. Keith, R. Kobayashi, J. Normand, 
 K. Raghavachari, A. Rendell, J. C. Burant, S. S. Iyengar, J. Tomasi, 
 M. Cossi, N. Rega, J. M. Millam, M. Klene, J. E. Knox, J. B. Cross, 
 V. Bakken, C. Adamo, J. Jaramillo, R. Gomperts, R. E. Stratmann, 
 O. Yazyev, A. J. Austin, R. Cammi, C. Pomelli, J. W. Ochterski, 
 R. L. Martin, K. Morokuma, V. G. Zakrzewski, G. A. Voth, 
 P. Salvador, J. J. Dannenberg, S. Dapprich, A. D. Daniels, 
 O. Farkas, J. B. Foresman, J. V. Ortiz, J. Cioslowski, 
 and D. J. Fox, Gaussian, Inc., Wallingford CT, 2010.
 
 ******************************************
 Gaussian 09:  EM64L-G09RevB.01 12-Aug-2010
                26-Mar-2019 
 ******************************************
 %mem=16gb
 %nprocshared=20
 Will use up to   20 processors via shared memory.
 %chk=1b-conf-15.chk
 ----------------------------------------------------------------------
 # b3lyp/6-311+G(2d,p) nmr guess=read geom=check integral(ultrafinegrid
 ) scrf=(iefpcm,read,solvent=methanol)
 ----------------------------------------------------------------------
 1/29=2,38=1,40=2/1;
 2/12=2,40=1/2;
 3/5=4,6=6,7=112,11=2,14=-4,16=1,25=1,30=1,70=2203,72=3,74=-5,75=-5,116=-2/1,2,8,3;
 4/5=1/1;
 5/5=2,38=6,53=3/2;
 8/6=1,10=90,11=11/1;
 10/13=100,45=16/2;
 6/7=2,8=2,9=2,10=2,28=1/1;
 99/9=1/99;
 ----------------------------------------------------------------------
 Candidate Structure: 1b, Conformer: 15, NMR calculation with methanol 
 solvation
 ----------------------------------------------------------------------
 Redundant internal coordinates taken from checkpoint file:
 1b-conf-15.chk
 Charge =  0 Multiplicity = 1
 O,0,-1.769588542,2.7165900939,-1.1548535051
 C,0,-2.2759797264,1.5386077901,-0.7324872267
 C,0,-1.5981427327,0.6167749207,0.087617155
 C,0,-0.2328983831,0.834912024,0.5913992211
 N,0,0.3865190557,0.1052425224,1.4334815113
 C,0,1.7560080518,0.6378534193,1.5174860756
 C,0,2.7349779679,-0.3319417695,0.8330624334
 O,0,2.9452645242,-1.4734634159,1.6437951175
 C,0,2.2797378947,-0.7680422571,-0.5664691501
 C,0,3.3319209473,-1.6167308783,-1.2324249706
 O,0,4.4998380831,-0.9710252487,-1.3444490444
 O,0,3.1664986253,-2.7501772053,-1.6270044877
 C,0,1.6336097898,2.0480906919,0.9049774143
 C,0,2.7755897146,2.6085083749,0.0864823618
 O,0,0.439926903,1.9086678605,0.0825889443
 C,0,-2.2396146488,-0.5753199469,0.4623823396
 C,0,-3.5235877786,-0.8385197901,0.0303122439
 Cl,0,-4.3093999497,-2.3273213622,0.5023142567
 C,0,-4.2056830614,0.0700582813,-0.7836678995
 C,0,-3.5804917222,1.2465720516,-1.1569652943
 H,0,-0.8620769464,2.8449705064,-0.8277140792
 H,0,2.0682692769,0.7053107834,2.5643955653
 H,0,3.7127476089,0.1568567564,0.7641499026
 H,0,2.0887650117,-1.9121903195,1.7953992896
 H,0,2.0826374793,0.1011047212,-1.2045900169
 H,0,1.3634506201,-1.3590211797,-0.4980351441
 H,0,5.1524046009,-1.5609807286,-1.7767727038
 H,0,1.3670778569,2.7529033089,1.7021923096
 H,0,3.0434503529,1.9647250297,-0.7539726894
 H,0,2.5051032898,3.5923063113,-0.3036455322
 H,0,3.6540722883,2.7283084625,0.7269252165
 H,0,-1.7060835033,-1.2792258852,1.0938413183
 H,0,-5.2157957463,-0.147211008,-1.118984436
 H,0,-4.0880510603,1.9702345939,-1.7877463614
 Recover connectivity data from disk.
                          Input orientation:                          
 ---------------------------------------------------------------------
 Center     Atomic      Atomic             Coordinates (Angstroms)
 Number     Number       Type             X           Y           Z
 ---------------------------------------------------------------------
      1          8           0       -1.769589    2.716590   -1.154854
      2          6           0       -2.275980    1.538608   -0.732487
      3          6           0       -1.598143    0.616775    0.087617
      4          6           0       -0.232898    0.834912    0.591399
      5          7           0        0.386519    0.105243    1.433482
      6          6           0        1.756008    0.637853    1.517486
      7          6           0        2.734978   -0.331942    0.833062
      8          8           0        2.945265   -1.473463    1.643795
      9          6           0        2.279738   -0.768042   -0.566469
     10          6           0        3.331921   -1.616731   -1.232425
     11          8           0        4.499838   -0.971025   -1.344449
     12          8           0        3.166499   -2.750177   -1.627004
     13          6           0        1.633610    2.048091    0.904977
     14          6           0        2.775590    2.608508    0.086482
     15          8           0        0.439927    1.908668    0.082589
     16          6           0       -2.239615   -0.575320    0.462382
     17          6           0       -3.523588   -0.838520    0.030312
     18         17           0       -4.309400   -2.327321    0.502314
     19          6           0       -4.205683    0.070058   -0.783668
     20          6           0       -3.580492    1.246572   -1.156965
     21          1           0       -0.862077    2.844971   -0.827714
     22          1           0        2.068269    0.705311    2.564396
     23          1           0        3.712748    0.156857    0.764150
     24          1           0        2.088765   -1.912190    1.795399
     25          1           0        2.082637    0.101105   -1.204590
     26          1           0        1.363451   -1.359021   -0.498035
     27          1           0        5.152405   -1.560981   -1.776773
     28          1           0        1.367078    2.752903    1.702192
     29          1           0        3.043450    1.964725   -0.753973
     30          1           0        2.505103    3.592306   -0.303646
     31          1           0        3.654072    2.728308    0.726925
     32          1           0       -1.706084   -1.279226    1.093841
     33          1           0       -5.215796   -0.147211   -1.118984
     34          1           0       -4.088051    1.970235   -1.787746
 ---------------------------------------------------------------------
                    Distance matrix (angstroms):
                    1          2          3          4          5
     1  O    0.000000
     2  C    1.349988   0.000000
     3  C    2.445884   1.407768   0.000000
     4  C    2.991910   2.534175   1.471486   0.000000
     5  N    4.262325   3.719524   2.451917   1.274833   0.000000
     6  C    4.887983   4.704324   3.646272   2.202775   1.471812
     7  C    5.791069   5.573114   4.497965   3.198162   2.463106
     8  O    6.900639   6.479250   5.237684   4.066553   3.013921
     9  C    5.374561   5.109086   4.169353   3.197415   2.889067
    10  C    6.693959   6.454041   5.571049   4.695192   4.329855
    11  O    7.275999   7.251514   6.461988   5.422888   5.078843
    12  O    7.380612   6.986731   6.080962   5.415725   5.024767
    13  C    4.033801   4.269163   3.627805   2.248107   2.368377
    14  C    4.712880   5.228169   4.805886   3.528680   3.713274
    15  O    2.658187   2.859623   2.413036   1.365479   2.253909
    16  C    3.697708   2.428523   1.404644   2.456076   2.881454
    17  C    4.137625   2.790900   2.414230   3.734144   4.260106
    18  Cl   5.885396   4.539267   4.023754   5.159992   5.369925
    19  C    3.616140   2.425492   2.803088   4.273035   5.099540
    20  C    2.332451   1.402576   2.423910   3.799029   4.873420
    21  H    0.973180   1.927375   2.518825   2.539701   3.765383
    22  H    5.710272   5.516912   4.425477   3.033955   2.113606
    23  H    6.347505   6.325663   5.373526   4.007209   3.393297
    24  H    6.709433   6.111400   4.785966   3.792929   2.664331
    25  H    4.656488   4.613766   3.934953   3.020887   3.136281
    26  H    5.182466   4.657969   3.608018   2.923789   2.613278
    27  H    8.160783   8.116580   7.334062   6.352167   5.982951
    28  H    4.242960   4.546872   3.995301   2.733583   2.836161
    29  H    4.887878   5.336513   4.906081   3.717656   3.911766
    30  H    4.445720   5.221143   5.083650   3.987603   4.434594
    31  H    5.740847   6.221800   5.696758   4.325721   4.249306
    32  H    4.585543   3.405942   2.149176   2.625319   2.532014
    33  H    4.480958   3.410848   3.889341   5.359034   6.161554
    34  H    2.516519   2.140905   3.398306   4.670278   5.820334
                    6          7          8          9         10
     6  C    0.000000
     7  C    1.538610   0.000000
     8  O    2.426509   1.415832   0.000000
     9  C    2.567821   1.534964   2.413672   0.000000
    10  C    3.889558   2.504648   2.905627   1.506937   0.000000
    11  O    4.278758   2.874842   3.405693   2.361207   1.339222
    12  O    4.832810   3.476493   3.518106   2.416597   1.211511
    13  C    1.542374   2.623497   3.829835   3.242413   4.569865
    14  C    2.640227   3.034020   4.372243   3.474667   4.461129
    15  O    2.325074   3.294055   4.489197   3.312244   4.745664
    16  C    4.306975   4.994318   5.393085   4.638990   5.915988
    17  C    5.680273   6.330140   6.697203   5.834355   7.014137
    18  Cl   6.827299   7.328997   7.393390   6.854953   7.867912
    19  C    6.415564   7.137801   7.707859   6.542956   7.737061
    20  C    6.000122   6.807134   7.604495   6.224921   7.482356
    21  H    4.150385   5.078361   6.265228   4.795113   6.136790
    22  H    1.094567   2.125537   2.522634   3.466670   4.626504
    23  H    2.151210   1.095311   2.005181   2.163216   2.697583
    24  H    2.586636   1.959813   0.974195   2.631343   3.286404
    25  H    2.793651   2.182912   3.367000   1.096113   2.124251
    26  H    2.864251   2.169747   2.665083   1.092484   2.116747
    27  H    5.217521   3.763739   4.071782   3.216489   1.900943
    28  H    2.158430   3.484653   4.511791   4.286821   5.618389
    29  H    2.928758   2.808650   4.192859   2.843665   3.624770
    30  H    3.550557   4.092025   5.445024   4.374072   5.355402
    31  H    2.932173   3.197050   4.358663   3.973177   4.777259
    32  H    3.980043   4.548448   4.687773   4.347955   5.559399
    33  H    7.494888   8.188981   8.717500   7.541467   8.673858
    34  H    6.844913   7.663053   8.549974   7.038353   8.260187
                   11         12         13         14         15
    11  O    0.000000
    12  O    2.241208   0.000000
    13  C    4.731833   5.637735   0.000000
    14  C    4.222992   5.639535   1.512653   0.000000
    15  O    5.178026   5.662309   1.456242   2.438260   0.000000
    16  C    6.988665   6.190444   4.698940   5.952339   3.673470
    17  C    8.141430   7.152509   5.974466   7.180863   4.822782
    18  Cl   9.102349   7.784720   7.390922   8.644791   6.377764
    19  C    8.785467   7.938136   6.392298   7.479242   5.070757
    20  C    8.381206   7.856005   5.664000   6.618218   4.258947
    21  H    6.601437   6.940747   3.140970   3.758229   1.844052
    22  H    4.899153   5.542052   2.178453   3.203516   3.202957
    23  H    2.517502   3.803532   2.814145   2.710737   3.774218
    24  H    4.069117   3.684641   4.084586   4.881479   4.500149
    25  H    2.647996   3.079448   2.905625   2.904156   2.760908
    26  H    3.271679   2.541824   3.694569   4.251716   3.444969
    27  H    0.980201   2.319578   5.709562   5.148360   6.140288
    28  H    5.741416   6.678725   1.096974   2.148319   2.048282
    29  H    3.329919   4.796627   2.178696   1.092049   2.735199
    30  H    5.087852   6.512743   2.145897   1.092347   2.692354
    31  H    4.323307   5.982685   2.139315   1.093732   3.379010
    32  H    6.674857   5.771374   4.718078   6.017860   3.973746
    33  H    9.753104   8.791836   7.471956   8.538699   6.136580
    34  H    9.088419   8.656594   6.324099   7.143507   4.899442
                   16         17         18         19         20
    16  C    0.000000
    17  C    1.380053   0.000000
    18  Cl   2.712031   1.748375   0.000000
    19  C    2.415487   1.397616   2.722487   0.000000
    20  C    2.782001   2.400099   4.007147   1.383618   0.000000
    21  H    3.906449   4.624711   6.356541   4.345317   3.170657
    22  H    4.961486   6.330391   7.356881   7.139717   6.786014
    23  H    6.004812   7.341243   8.402056   8.068756   7.620335
    24  H    4.722185   5.980535   6.540712   7.085265   7.129846
    25  H    4.681689   5.817013   7.047618   6.302469   5.778010
    26  H    3.810337   4.942997   5.841193   5.756657   5.627244
    27  H    7.786353   8.891589   9.762544   9.550935   9.194019
    28  H    5.061860   6.293815   7.711731   6.665795   5.909506
    29  H    5.986829   7.183263   8.606063   7.492702   6.674935
    30  H    6.361466   7.489250   9.062506   7.594163   6.577620
    31  H    6.761619   8.045268   9.435398   8.433501   7.621253
    32  H    1.085762   2.151427   2.868042   3.404939   3.867711
    33  H    3.397301   2.159250   2.864096   1.086265   2.149021
    34  H    3.867770   3.393090   4.874665   2.152366   1.085905
                   21         22         23         24         25
    21  H    0.000000
    22  H    4.967039   0.000000
    23  H    5.539766   2.499199   0.000000
    24  H    6.182133   2.728202   2.825199   0.000000
    25  H    4.042546   3.817136   2.556620   3.612939   0.000000
    26  H    4.768145   3.759883   3.067604   2.468181   1.774378
    27  H    7.515791   5.787375   3.388195   4.719073   3.537427
    28  H    3.373134   2.329742   3.622368   4.721506   3.999181
    29  H    4.004174   3.680852   2.453781   4.737214   2.144597
    30  H    3.488705   4.092826   3.794853   5.905828   3.630243
    31  H    4.777669   3.159682   2.572390   5.012589   3.619718
    32  H    4.627496   4.510727   5.615582   3.910716   4.641391
    33  H    5.290828   8.206807   9.130035   8.060111   7.303158
    34  H    3.477605   7.644701   8.405532   8.128051   6.473879
                   26         27         28         29         30
    26  H    0.000000
    27  H    4.004014   0.000000
    28  H    4.663576   6.711296   0.000000
    29  H    3.732987   4.233723   3.076393   0.000000
    30  H    5.084958   5.977849   2.454197   1.772465   0.000000
    31  H    4.842906   5.187630   2.486382   1.774536   1.768813
    32  H    3.458681   7.440341   5.106122   6.041168   6.589301
    33  H    6.718671  10.484799   7.726832   8.532799   8.617485
    34  H    6.516607   9.892200   6.523088   7.206041   6.950062
                   31         32         33         34
    31  H    0.000000
    32  H    6.702703   0.000000
    33  H    9.505291   4.300713   0.000000
    34  H    8.175495   4.953414   2.490507   0.000000
 Stoichiometry    C13H14ClNO5
 Framework group  C1[X(C13H14ClNO5)]
 Deg. of freedom    96
 Full point group                 C1      NOp   1
 Largest Abelian subgroup         C1      NOp   1
 Largest concise Abelian subgroup C1      NOp   1
                         Standard orientation:                         
 ---------------------------------------------------------------------
 Center     Atomic      Atomic             Coordinates (Angstroms)
 Number     Number       Type             X           Y           Z
 ---------------------------------------------------------------------
      1          8           0       -1.769589    2.716590   -1.154854
      2          6           0       -2.275980    1.538608   -0.732487
      3          6           0       -1.598143    0.616775    0.087617
      4          6           0       -0.232898    0.834912    0.591399
      5          7           0        0.386519    0.105243    1.433482
      6          6           0        1.756008    0.637853    1.517486
      7          6           0        2.734978   -0.331942    0.833062
      8          8           0        2.945265   -1.473463    1.643795
      9          6           0        2.279738   -0.768042   -0.566469
     10          6           0        3.331921   -1.616731   -1.232425
     11          8           0        4.499838   -0.971025   -1.344449
     12          8           0        3.166499   -2.750177   -1.627004
     13          6           0        1.633610    2.048091    0.904977
     14          6           0        2.775590    2.608508    0.086482
     15          8           0        0.439927    1.908668    0.082589
     16          6           0       -2.239615   -0.575320    0.462382
     17          6           0       -3.523588   -0.838520    0.030312
     18         17           0       -4.309400   -2.327321    0.502314
     19          6           0       -4.205683    0.070058   -0.783668
     20          6           0       -3.580492    1.246572   -1.156965
     21          1           0       -0.862077    2.844971   -0.827714
     22          1           0        2.068269    0.705311    2.564396
     23          1           0        3.712748    0.156857    0.764150
     24          1           0        2.088765   -1.912190    1.795399
     25          1           0        2.082637    0.101105   -1.204590
     26          1           0        1.363451   -1.359021   -0.498035
     27          1           0        5.152405   -1.560981   -1.776773
     28          1           0        1.367078    2.752903    1.702192
     29          1           0        3.043450    1.964725   -0.753973
     30          1           0        2.505103    3.592306   -0.303646
     31          1           0        3.654072    2.728308    0.726925
     32          1           0       -1.706084   -1.279226    1.093841
     33          1           0       -5.215796   -0.147211   -1.118984
     34          1           0       -4.088051    1.970235   -1.787746
 ---------------------------------------------------------------------
 Rotational constants (GHZ):      0.4419680      0.1754427      0.1479379
 Standard basis: 6-311+G(2d,p) (5D, 7F)
 There are   632 symmetry adapted basis functions of A   symmetry.
 Integral buffers will be    131072 words long.
 Raffenetti 2 integral format.
 Two-electron integral symmetry is turned on.
   632 basis functions,   969 primitive gaussians,   672 cartesian basis functions
    78 alpha electrons       78 beta electrons
       nuclear repulsion energy      1702.4676297465 Hartrees.
 NAtoms=   34 NActive=   34 NUniq=   34 SFac= 1.00D+00 NAtFMM=   50 NAOKFM=F Big=F
 Using the following non-standard input for PCM:
 radii=bondi
 --- end of non-standard input.
 ------------------------------------------------------------------------------
 Polarizable Continuum Model (PCM)
 =================================
 Model                : PCM.
 Atomic radii         : Bondi.
 Polarization charges : Total charges.
 Charge compensation  : None.
 Solution method      : Matrix inversion.
 Cavity type          : Scaled VdW (van der Waals Surface) (Alpha=1.100).
 Cavity algorithm     : GePol (No added spheres)
                        Default sphere list used, NSphG=   34.
                        Lebedev-Laikov grids with approx.  5.0 points / Ang**2.
                        Smoothing algorithm: Karplus/York (Gamma=1.0000).
                        Polarization charges: spherical gaussians, with
                                              point-specific exponents (IZeta= 3).
                        Self-potential: point-specific (ISelfS= 7).
                        Self-field    : sphere-specific E.n sum rule (ISelfD= 2).
 Solvent              : Methanol, Eps=  32.613000 Eps(inf)=   1.765709
 ------------------------------------------------------------------------------
 One-electron integrals computed using PRISM.
 NBasis=   632 RedAO= T  NBF=   632
 NBsUse=   630 1.00D-06 NBFU=   630
 Initial guess read from the checkpoint file:  1b-conf-15.chk
 B after Tr=     0.000000    0.000000    0.000000
         Rot=    1.000000    0.000000    0.000000    0.000000 Ang=   0.00 deg.
 Initial guess orbital symmetries:
       Occupied  (A) (A) (A) (A) (A) (A) (A) (A) (A) (A) (A) (A)
                 (A) (A) (A) (A) (A) (A) (A) (A) (A) (A) (A) (A)
                 (A) (A) (A) (A) (A) (A) (A) (A) (A) (A) (A) (A)
                 (A) (A) (A) (A) (A) (A) (A) (A) (A) (A) (A) (A)
                 (A) (A) (A) (A) (A) (A) (A) (A) (A) (A) (A) (A)
                 (A) (A) (A) (A) (A) (A) (A) (A) (A) (A) (A) (A)
                 (A) (A) (A) (A) (A) (A)
       Virtual   (A) (A) (A) (A) (A) (A) (A) (A) (A) (A) (A) (A)
                 (A) (A) (A) (A) (A) (A) (A) (A) (A) (A) (A) (A)
                 (A) (A) (A) (A) (A) (A) (A) (A) (A) (A) (A) (A)
                 (A) (A) (A) (A) (A) (A) (A) (A) (A) (A) (A) (A)
                 (A) (A) (A) (A) (A) (A) (A) (A) (A) (A) (A) (A)
                 (A) (A) (A) (A) (A) (A) (A) (A) (A) (A) (A) (A)
                 (A) (A) (A) (A) (A) (A) (A) (A) (A) (A) (A) (A)
                 (A) (A) (A) (A) (A) (A) (A) (A) (A) (A) (A) (A)
                 (A) (A) (A) (A) (A) (A) (A) (A) (A) (A) (A) (A)
                 (A) (A) (A) (A) (A) (A) (A) (A) (A) (A) (A) (A)
                 (A) (A) (A) (A) (A) (A) (A) (A) (A) (A) (A) (A)
                 (A) (A) (A) (A) (A) (A) (A) (A) (A) (A) (A) (A)
                 (A) (A) (A) (A) (A) (A) (A) (A) (A) (A) (A) (A)
                 (A) (A) (A) (A) (A) (A) (A) (A) (A) (A) (A) (A)
                 (A) (A) (A) (A) (A) (A) (A) (A) (A) (A) (A) (A)
                 (A) (A) (A) (A) (A) (A) (A) (A) (A) (A) (A) (A)
                 (A) (A) (A) (A) (A) (A) (A) (A) (A) (A) (A) (A)
                 (A) (A) (A) (A) (A) (A) (A) (A) (A) (A) (A) (A)
                 (A) (A) (A) (A) (A) (A) (A) (A) (A) (A) (A) (A)
                 (A) (A) (A) (A) (A) (A) (A) (A) (A) (A) (A) (A)
                 (A) (A) (A) (A) (A) (A) (A) (A) (A) (A) (A) (A)
                 (A) (A) (A) (A) (A) (A) (A) (A) (A) (A) (A) (A)
                 (A) (A) (A) (A) (A) (A) (A) (A) (A) (A) (A) (A)
                 (A) (A) (A) (A) (A) (A) (A) (A) (A) (A) (A) (A)
                 (A) (A) (A) (A) (A) (A) (A) (A) (A) (A) (A) (A)
                 (A) (A) (A) (A) (A) (A) (A) (A) (A) (A) (A) (A)
                 (A) (A) (A) (A) (A) (A) (A) (A) (A) (A) (A) (A)
                 (A) (A) (A) (A) (A) (A) (A) (A) (A) (A) (A) (A)
                 (A) (A) (A) (A) (A) (A) (A) (A) (A) (A) (A) (A)
                 (A) (A) (A) (A) (A) (A) (A) (A) (A) (A) (A) (A)
                 (A) (A) (A) (A) (A) (A) (A) (A) (A) (A) (A) (A)
                 (A) (A) (A) (A) (A) (A) (A) (A) (A) (A) (A) (A)
                 (A) (A) (A) (A) (A) (A) (A) (A) (A) (A) (A) (A)
                 (A) (A) (A) (A) (A) (A) (A) (A) (A) (A) (A) (A)
                 (A) (A) (A) (A) (A) (A) (A) (A) (A) (A) (A) (A)
                 (A) (A) (A) (A) (A) (A) (A) (A) (A) (A) (A) (A)
                 (A) (A) (A) (A) (A) (A) (A) (A) (A) (A) (A) (A)
                 (A) (A) (A) (A) (A) (A) (A) (A) (A) (A) (A) (A)
                 (A) (A) (A) (A) (A) (A) (A) (A) (A) (A) (A) (A)
                 (A) (A) (A) (A) (A) (A) (A) (A) (A) (A) (A) (A)
                 (A) (A) (A) (A) (A) (A) (A) (A) (A) (A) (A) (A)
                 (A) (A) (A) (A) (A) (A) (A) (A) (A) (A) (A) (A)
                 (A) (A) (A) (A) (A) (A) (A) (A) (A) (A) (A) (A)
                 (A) (A) (A) (A) (A) (A) (A) (A) (A) (A) (A) (A)
                 (A) (A) (A) (A) (A) (A) (A) (A) (A) (A) (A) (A)
                 (A) (A) (A) (A) (A) (A) (A) (A) (A) (A) (A) (A)
 Requested convergence on RMS density matrix=1.00D-08 within 128 cycles.
 Requested convergence on MAX density matrix=1.00D-06.
 Requested convergence on             energy=1.00D-06.
 No special actions if energy rises.
 Error on total polarization charges =  0.05077
 SCF Done:  E(RB3LYP) =  -1395.24823683     A.U. after   13 cycles
             Convg  =    0.5091D-08             -V/T =  2.0034
 Range of M.O.s used for correlation:     1   630
 NBasis=   632 NAE=    78 NBE=    78 NFC=     0 NFV=     0
 NROrb=    630 NOA=    78 NOB=    78 NVA=   552 NVB=   552

 **** Warning!!: The largest alpha MO coefficient is  0.12136299D+03

 NEqPCM:  Using equilibrium solvation (IEInf=0, Eps=  32.6130, EpsInf=   1.7657)
          Differentiating once with respect to magnetic field using GIAOs.
          Electric field/nuclear overlap derivatives assumed to be zero.
 FoFCou: FMM=F IPFlag=           0 FMFlag=    10101102 FMFlg1=           0
         NFxFlg=    40000000 DoJE=F BraDBF=F KetDBF=T FulRan=T
         Omega=  0.000000  0.000000  1.000000  0.000000  0.000000 ICntrl=    6100 IOpCl=  0
         NMat0=    1 NMatS0=    1 NMatT0=    0 NMatD0=    1 NMtDS0=    0 NMtDT0=    0
         I1Cent=           7 NGrid=        2477.
 Symmetry not used in FoFCou.
          There are     3 degrees of freedom in the 1st order CPHF.  IDoFFX=0.
      3 vectors produced by pass  0 Test12= 1.44D-12 3.33D-08 XBig12= 3.63D+02 6.53D+00.
 AX will form     3 AO Fock derivatives at one time.
      3 vectors produced by pass  1 Test12= 1.44D-12 3.33D-08 XBig12= 7.26D-01 2.64D-01.
      3 vectors produced by pass  2 Test12= 1.44D-12 3.33D-08 XBig12= 2.78D-03 2.23D-02.
      3 vectors produced by pass  3 Test12= 1.44D-12 3.33D-08 XBig12= 1.23D-05 1.10D-03.
      3 vectors produced by pass  4 Test12= 1.44D-12 3.33D-08 XBig12= 6.72D-08 9.76D-05.
      3 vectors produced by pass  5 Test12= 1.44D-12 3.33D-08 XBig12= 3.40D-10 8.16D-06.
      3 vectors produced by pass  6 Test12= 1.44D-12 3.33D-08 XBig12= 1.20D-12 3.34D-07.
 Inverted reduced A of dimension    21 with in-core refinement.
 Calculating GIAO nuclear magnetic shielding tensors.
 SCF GIAO Magnetic shielding tensor (ppm):
  1  O    Isotropic =   200.6701   Anisotropy =    93.0127
   XX=   159.3976   YX=    -4.9669   ZX=   -41.4710
   XY=    -1.7495   YY=   219.7001   ZY=    24.0563
   XZ=   -43.2567   YZ=    35.1503   ZZ=   222.9126
   Eigenvalues:   136.8226   202.5092   262.6786
  2  C    Isotropic =    18.5736   Anisotropy =   144.2039
   XX=     5.6922   YX=   -45.2885   ZX=   -24.1874
   XY=   -37.8738   YY=   -21.1693   ZY=    58.0886
   XZ=   -30.4653   YZ=    53.7329   ZZ=    71.1979
   Eigenvalues:   -59.9496     0.9608   114.7095
  3  C    Isotropic =    65.1949   Anisotropy =   136.2174
   XX=    21.4065   YX=   -21.0756   ZX=   -50.9169
   XY=   -34.6428   YY=    61.5815   ZY=    37.1933
   XZ=   -43.0049   YZ=    41.2659   ZZ=   112.5967
   Eigenvalues:    -0.8038    40.3820   156.0065
  4  C    Isotropic =    10.3194   Anisotropy =    70.2711
   XX=   -20.9664   YX=   -65.5981   ZX=     8.8442
   XY=   -67.4885   YY=    -2.5858   ZY=    14.1141
   XZ=    11.0965   YZ=     6.9983   ZZ=    54.5102
   Eigenvalues:   -80.4982    54.2895    57.1668
  5  N    Isotropic =    15.9130   Anisotropy =   274.9682
   XX=  -102.5426   YX=   -84.0023   ZX=   -60.4199
   XY=   -85.9868   YY=    56.0996   ZY=    75.3818
   XZ=  -112.5774   YZ=    71.4901   ZZ=    94.1821
   Eigenvalues:  -151.7878     0.3017   199.2252
  6  C    Isotropic =   106.5312   Anisotropy =    23.8975
   XX=   122.4090   YX=    -6.5082   ZX=    10.3330
   XY=     7.8781   YY=   108.7650   ZY=   -10.5489
   XZ=   -11.2939   YZ=    -1.6180   ZZ=    88.4196
   Eigenvalues:    86.7372   110.3935   122.4629
  7  C    Isotropic =   106.2457   Anisotropy =    37.7500
   XX=    89.9425   YX=    -7.8470   ZX=    -0.0316
   XY=    -7.0828   YY=   117.5690   ZY=   -17.5651
   XZ=     2.8640   YZ=   -13.6566   ZZ=   111.2255
   Eigenvalues:    87.6780    99.6467   131.4124
  8  O    Isotropic =   270.1864   Anisotropy =    37.9305
   XX=   260.3090   YX=    13.3851   ZX=     4.2587
   XY=     1.1948   YY=   262.4636   ZY=   -13.7052
   XZ=     9.1559   YZ=   -17.4887   ZZ=   287.7866
   Eigenvalues:   247.7803   267.3056   295.4734
  9  C    Isotropic =   139.6009   Anisotropy =    24.0051
   XX=   140.7735   YX=    -3.8376   ZX=    -4.8145
   XY=   -11.7165   YY=   133.5687   ZY=    13.7099
   XZ=    -7.6676   YZ=     4.4794   ZZ=   144.4606
   Eigenvalues:   127.0437   136.1549   155.6043
 10  C    Isotropic =    -0.1672   Anisotropy =   110.6390
   XX=   -81.6199   YX=    -4.4363   ZX=    47.2763
   XY=   -38.0380   YY=    24.0989   ZY=    -6.4468
   XZ=    36.6436   YZ=   -13.2873   ZZ=    57.0195
   Eigenvalues:   -96.0005    21.9068    73.5922
 11  O    Isotropic =   117.9599   Anisotropy =   184.8211
   XX=   206.9239   YX=    25.9313   ZX=    -6.8902
   XY=   133.8035   YY=    25.3311   ZY=   -99.1321
   XZ=    28.3740   YZ=   -68.2527   ZZ=   121.6247
   Eigenvalues:   -45.4625   158.1683   241.1740
 12  O    Isotropic =   -73.1004   Anisotropy =   478.0440
   XX=  -202.1774   YX=  -132.2066   ZX=    88.5250
   XY=   -97.6080   YY=  -180.1307   ZY=  -138.0448
   XZ=   105.2774   YZ=  -124.7322   ZZ=   163.0068
   Eigenvalues:  -307.3657  -157.5311   245.5956
 13  C    Isotropic =    97.3849   Anisotropy =    74.9680
   XX=   120.5913   YX=     4.1637   ZX=    35.8196
   XY=    14.5293   YY=    78.5533   ZY=   -14.9584
   XZ=    40.3454   YZ=    -4.7105   ZZ=    93.0100
   Eigenvalues:    57.6613    87.1299   147.3635
 14  C    Isotropic =   168.9890   Anisotropy =    18.0365
   XX=   174.7612   YX=     4.4757   ZX=    -3.7179
   XY=     8.9858   YY=   162.7001   ZY=    -1.9285
   XZ=    -8.3397   YZ=    -0.9682   ZZ=   169.5058
   Eigenvalues:   159.5308   166.4230   181.0134
 15  O    Isotropic =   122.0879   Anisotropy =   156.9079
   XX=    89.0008   YX=    62.8468   ZX=   -94.0945
   XY=    51.8545   YY=   159.2967   ZY=     5.2217
   XZ=   -51.4661   YZ=   -55.1712   ZZ=   117.9663
   Eigenvalues:    22.3381   117.2325   226.6932
 16  C    Isotropic =    47.0369   Anisotropy =   155.2654
   XX=    43.1862   YX=     8.6060   ZX=   -53.1036
   XY=     2.1122   YY=    14.3297   ZY=    76.3041
   XZ=   -55.3521   YZ=    75.7856   ZZ=    83.5947
   Eigenvalues:   -48.6153    39.1787   150.5471
 17  C    Isotropic =    46.7226   Anisotropy =   101.2696
   XX=    56.5347   YX=   -49.0446   ZX=     0.8241
   XY=   -47.6504   YY=    -6.2045   ZY=    45.2259
   XZ=     0.1818   YZ=    43.9296   ZZ=    89.8376
   Eigenvalues:   -44.3456    70.2777   114.2356
 18  Cl   Isotropic =   709.2638   Anisotropy =   492.7502
   XX=   633.8490   YX=   187.1163   ZX=   -71.5047
   XY=   188.1558   YY=   905.5532   ZY=  -107.1849
   XZ=   -72.9649   YZ=  -106.1339   ZZ=   588.3891
   Eigenvalues:   528.2520   561.7755  1037.7639
 19  C    Isotropic =    42.0878   Anisotropy =   162.9289
   XX=   -28.7872   YX=   -33.1551   ZX=   -62.8274
   XY=   -32.5922   YY=    54.2081   ZY=    39.0697
   XZ=   -61.2494   YZ=    39.6280   ZZ=   100.8425
   Eigenvalues:   -56.2707    31.8271   150.7071
 20  C    Isotropic =    58.1222   Anisotropy =   147.3832
   XX=    43.9730   YX=     5.2222   ZX=   -53.6049
   XY=     5.3099   YY=    36.5731   ZY=    69.0192
   XZ=   -53.7030   YZ=    68.9330   ZZ=    93.8204
   Eigenvalues:   -28.3291    46.3179   156.3776
 21  H    Isotropic =    23.5247   Anisotropy =    20.7610
   XX=    33.7653   YX=     0.0303   ZX=     9.0829
   XY=     1.9930   YY=    20.1728   ZY=    -3.9587
   XZ=     8.0746   YZ=    -5.2652   ZZ=    16.6360
   Eigenvalues:    10.7738    22.4349    37.3653
 22  H    Isotropic =    27.4269   Anisotropy =     4.6407
   XX=    25.9557   YX=    -0.8307   ZX=     1.7603
   XY=     0.3932   YY=    26.5029   ZY=     1.1976
   XZ=     1.6237   YZ=     0.0348   ZZ=    29.8221
   Eigenvalues:    25.1804    26.5795    30.5207
 23  H    Isotropic =    27.4026   Anisotropy =     3.7474
   XX=    28.1450   YX=    -0.0277   ZX=    -0.5994
   XY=     0.9641   YY=    29.0713   ZY=    -1.6528
   XZ=    -0.9727   YZ=    -1.5123   ZZ=    24.9915
   Eigenvalues:    24.3548    27.9521    29.9009
 24  H    Isotropic =    29.7283   Anisotropy =    14.7165
   XX=    34.1538   YX=     4.8271   ZX=    -1.8181
   XY=     5.4305   YY=    31.0783   ZY=    -5.4352
   XZ=    -3.2107   YZ=    -4.1350   ZZ=    23.9527
   Eigenvalues:    21.5494    28.0962    39.5393
 25  H    Isotropic =    28.9601   Anisotropy =     4.0898
   XX=    27.6973   YX=    -2.4626   ZX=    -0.3514
   XY=    -2.7950   YY=    29.9251   ZY=    -0.4370
   XZ=    -1.2968   YZ=    -1.1631   ZZ=    29.2577
   Eigenvalues:    25.6065    29.5871    31.6866
 26  H    Isotropic =    29.6232   Anisotropy =     5.5037
   XX=    32.3476   YX=     0.9600   ZX=    -0.8118
   XY=    -1.7771   YY=    29.5250   ZY=     3.0299
   XZ=    -2.2333   YZ=     3.0808   ZZ=    26.9970
   Eigenvalues:    24.8074    30.7699    33.2923
 27  H    Isotropic =    24.8122   Anisotropy =    12.4879
   XX=    29.8982   YX=    -5.5572   ZX=    -5.1591
   XY=    -1.2826   YY=    21.2051   ZY=     0.3486
   XZ=    -3.6153   YZ=     1.7257   ZZ=    23.3331
   Eigenvalues:    19.8946    21.4045    33.1374
 28  H    Isotropic =    26.6923   Anisotropy =     6.1681
   XX=    25.3171   YX=    -0.5550   ZX=     0.7034
   XY=     0.7372   YY=    27.4780   ZY=     2.5503
   XZ=     1.1718   YZ=     4.1056   ZZ=    27.2820
   Eigenvalues:    23.7943    25.4783    30.8044
 29  H    Isotropic =    30.3184   Anisotropy =     5.4434
   XX=    28.2522   YX=    -0.3901   ZX=    -3.4423
   XY=    -0.0403   YY=    31.8387   ZY=     1.0360
   XZ=    -3.5551   YZ=     1.5006   ZZ=    30.8642
   Eigenvalues:    25.7729    31.2349    33.9473
 30  H    Isotropic =    30.0263   Anisotropy =     9.8113
   XX=    28.2087   YX=     0.6461   ZX=    -0.4265
   XY=     0.2339   YY=    35.0901   ZY=    -3.5561
   XZ=    -0.2033   YZ=    -3.9505   ZZ=    26.7801
   Eigenvalues:    25.3295    28.1823    36.5672
 31  H    Isotropic =    30.2936   Anisotropy =     9.5442
   XX=    34.0183   YX=     2.9880   ZX=     3.2714
   XY=     3.3674   YY=    29.2441   ZY=     0.6049
   XZ=     3.1461   YZ=     0.2460   ZZ=    27.6184
   Eigenvalues:    25.9824    28.2420    36.6564
 32  H    Isotropic =    23.2975   Anisotropy =    12.0991
   XX=    28.6359   YX=     4.5228   ZX=     1.5149
   XY=     5.1624   YY=    22.4266   ZY=    -0.4248
   XZ=     1.2302   YZ=    -0.4394   ZZ=    18.8300
   Eigenvalues:    18.1096    20.4193    31.3635
 33  H    Isotropic =    24.0355   Anisotropy =     7.1626
   XX=    22.8070   YX=     0.3033   ZX=     0.8546
   XY=    -0.2460   YY=    26.6778   ZY=    -3.7402
   XZ=     1.2732   YZ=    -3.4243   ZZ=    22.6217
   Eigenvalues:    20.1956    23.1004    28.8105
 34  H    Isotropic =    24.5405   Anisotropy =     5.6725
   XX=    26.7391   YX=     2.0018   ZX=     1.2695
   XY=     2.6448   YY=    24.8573   ZY=    -0.8771
   XZ=     0.8911   YZ=    -1.1885   ZZ=    22.0250
   Eigenvalues:    21.0569    24.2425    28.3221
 End of Minotr Frequency-dependent properties file   721 does not exist.
 End of Minotr Frequency-dependent properties file   722 does not exist.

 **********************************************************************

            Population analysis using the SCF density.

 **********************************************************************

 Orbital symmetries:
       Occupied  (A) (A) (A) (A) (A) (A) (A) (A) (A) (A) (A) (A)
                 (A) (A) (A) (A) (A) (A) (A) (A) (A) (A) (A) (A)
                 (A) (A) (A) (A) (A) (A) (A) (A) (A) (A) (A) (A)
                 (A) (A) (A) (A) (A) (A) (A) (A) (A) (A) (A) (A)
                 (A) (A) (A) (A) (A) (A) (A) (A) (A) (A) (A) (A)
                 (A) (A) (A) (A) (A) (A) (A) (A) (A) (A) (A) (A)
                 (A) (A) (A) (A) (A) (A)
       Virtual   (A) (A) (A) (A) (A) (A) (A) (A) (A) (A) (A) (A)
                 (A) (A) (A) (A) (A) (A) (A) (A) (A) (A) (A) (A)
                 (A) (A) (A) (A) (A) (A) (A) (A) (A) (A) (A) (A)
                 (A) (A) (A) (A) (A) (A) (A) (A) (A) (A) (A) (A)
                 (A) (A) (A) (A) (A) (A) (A) (A) (A) (A) (A) (A)
                 (A) (A) (A) (A) (A) (A) (A) (A) (A) (A) (A) (A)
                 (A) (A) (A) (A) (A) (A) (A) (A) (A) (A) (A) (A)
                 (A) (A) (A) (A) (A) (A) (A) (A) (A) (A) (A) (A)
                 (A) (A) (A) (A) (A) (A) (A) (A) (A) (A) (A) (A)
                 (A) (A) (A) (A) (A) (A) (A) (A) (A) (A) (A) (A)
                 (A) (A) (A) (A) (A) (A) (A) (A) (A) (A) (A) (A)
                 (A) (A) (A) (A) (A) (A) (A) (A) (A) (A) (A) (A)
                 (A) (A) (A) (A) (A) (A) (A) (A) (A) (A) (A) (A)
                 (A) (A) (A) (A) (A) (A) (A) (A) (A) (A) (A) (A)
                 (A) (A) (A) (A) (A) (A) (A) (A) (A) (A) (A) (A)
                 (A) (A) (A) (A) (A) (A) (A) (A) (A) (A) (A) (A)
                 (A) (A) (A) (A) (A) (A) (A) (A) (A) (A) (A) (A)
                 (A) (A) (A) (A) (A) (A) (A) (A) (A) (A) (A) (A)
                 (A) (A) (A) (A) (A) (A) (A) (A) (A) (A) (A) (A)
                 (A) (A) (A) (A) (A) (A) (A) (A) (A) (A) (A) (A)
                 (A) (A) (A) (A) (A) (A) (A) (A) (A) (A) (A) (A)
                 (A) (A) (A) (A) (A) (A) (A) (A) (A) (A) (A) (A)
                 (A) (A) (A) (A) (A) (A) (A) (A) (A) (A) (A) (A)
                 (A) (A) (A) (A) (A) (A) (A) (A) (A) (A) (A) (A)
                 (A) (A) (A) (A) (A) (A) (A) (A) (A) (A) (A) (A)
                 (A) (A) (A) (A) (A) (A) (A) (A) (A) (A) (A) (A)
                 (A) (A) (A) (A) (A) (A) (A) (A) (A) (A) (A) (A)
                 (A) (A) (A) (A) (A) (A) (A) (A) (A) (A) (A) (A)
                 (A) (A) (A) (A) (A) (A) (A) (A) (A) (A) (A) (A)
                 (A) (A) (A) (A) (A) (A) (A) (A) (A) (A) (A) (A)
                 (A) (A) (A) (A) (A) (A) (A) (A) (A) (A) (A) (A)
                 (A) (A) (A) (A) (A) (A) (A) (A) (A) (A) (A) (A)
                 (A) (A) (A) (A) (A) (A) (A) (A) (A) (A) (A) (A)
                 (A) (A) (A) (A) (A) (A) (A) (A) (A) (A) (A) (A)
                 (A) (A) (A) (A) (A) (A) (A) (A) (A) (A) (A) (A)
                 (A) (A) (A) (A) (A) (A) (A) (A) (A) (A) (A) (A)
                 (A) (A) (A) (A) (A) (A) (A) (A) (A) (A) (A) (A)
                 (A) (A) (A) (A) (A) (A) (A) (A) (A) (A) (A) (A)
                 (A) (A) (A) (A) (A) (A) (A) (A) (A) (A) (A) (A)
                 (A) (A) (A) (A) (A) (A) (A) (A) (A) (A) (A) (A)
                 (A) (A) (A) (A) (A) (A) (A) (A) (A) (A) (A) (A)
                 (A) (A) (A) (A) (A) (A) (A) (A) (A) (A) (A) (A)
                 (A) (A) (A) (A) (A) (A) (A) (A) (A) (A) (A) (A)
                 (A) (A) (A) (A) (A) (A) (A) (A) (A) (A) (A) (A)
                 (A) (A) (A) (A) (A) (A) (A) (A) (A) (A) (A) (A)
                 (A) (A) (A) (A) (A) (A) (A) (A) (A) (A) (A) (A)
 The electronic state is 1-A.
 Alpha  occ. eigenvalues -- -101.55992 -19.18073 -19.17876 -19.16305 -19.13642
 Alpha  occ. eigenvalues --  -19.12716 -14.30817 -10.31818 -10.28325 -10.25945
 Alpha  occ. eigenvalues --  -10.24160 -10.23867 -10.23673 -10.21232 -10.20753
 Alpha  occ. eigenvalues --  -10.19735 -10.19726 -10.18691 -10.18583 -10.16824
 Alpha  occ. eigenvalues --   -9.47444  -7.23880  -7.22939  -7.22912  -1.12262
 Alpha  occ. eigenvalues --   -1.11331  -1.07708  -1.04115  -1.03298  -0.92535
 Alpha  occ. eigenvalues --   -0.90177  -0.85117  -0.81967  -0.78721  -0.77236
 Alpha  occ. eigenvalues --   -0.74272  -0.71559  -0.68172  -0.64560  -0.62334
 Alpha  occ. eigenvalues --   -0.62178  -0.60545  -0.59296  -0.55896  -0.53762
 Alpha  occ. eigenvalues --   -0.52111  -0.50999  -0.50684  -0.49886  -0.48538
 Alpha  occ. eigenvalues --   -0.47837  -0.47225  -0.45977  -0.45549  -0.44698
 Alpha  occ. eigenvalues --   -0.43523  -0.43330  -0.42274  -0.41423  -0.40670
 Alpha  occ. eigenvalues --   -0.40595  -0.39858  -0.39294  -0.39041  -0.38401
 Alpha  occ. eigenvalues --   -0.37699  -0.37052  -0.35616  -0.34603  -0.33667
 Alpha  occ. eigenvalues --   -0.32641  -0.32405  -0.30629  -0.30065  -0.29638
 Alpha  occ. eigenvalues --   -0.28371  -0.25804  -0.23614
 Alpha virt. eigenvalues --   -0.06273  -0.02171  -0.01264  -0.00128   0.00825
 Alpha virt. eigenvalues --    0.00954   0.01240   0.01928   0.02610   0.02903
 Alpha virt. eigenvalues --    0.03493   0.03744   0.04512   0.04613   0.05512
 Alpha virt. eigenvalues --    0.05719   0.06005   0.06447   0.07082   0.07479
 Alpha virt. eigenvalues --    0.07984   0.08244   0.08433   0.08769   0.09341
 Alpha virt. eigenvalues --    0.09420   0.10278   0.10429   0.10792   0.11485
 Alpha virt. eigenvalues --    0.11929   0.12275   0.12812   0.13161   0.13308
 Alpha virt. eigenvalues --    0.13878   0.14340   0.14648   0.14999   0.15292
 Alpha virt. eigenvalues --    0.15435   0.15544   0.16109   0.16296   0.16574
 Alpha virt. eigenvalues --    0.16834   0.17289   0.17503   0.17870   0.18141
 Alpha virt. eigenvalues --    0.18437   0.18645   0.18973   0.19426   0.19689
 Alpha virt. eigenvalues --    0.20286   0.20422   0.20737   0.20885   0.21479
 Alpha virt. eigenvalues --    0.21512   0.21867   0.22259   0.22633   0.22784
 Alpha virt. eigenvalues --    0.22878   0.23582   0.23800   0.24013   0.24508
 Alpha virt. eigenvalues --    0.25145   0.25336   0.26119   0.26671   0.26726
 Alpha virt. eigenvalues --    0.26885   0.27395   0.27545   0.27768   0.28148
 Alpha virt. eigenvalues --    0.28520   0.28983   0.29095   0.29438   0.29549
 Alpha virt. eigenvalues --    0.30004   0.30158   0.30854   0.31241   0.31650
 Alpha virt. eigenvalues --    0.32412   0.32871   0.33328   0.33682   0.34059
 Alpha virt. eigenvalues --    0.34131   0.34580   0.34745   0.35026   0.35956
 Alpha virt. eigenvalues --    0.36394   0.37125   0.37465   0.38112   0.38793
 Alpha virt. eigenvalues --    0.38910   0.39823   0.40281   0.40340   0.40741
 Alpha virt. eigenvalues --    0.41614   0.42736   0.43234   0.44388   0.44892
 Alpha virt. eigenvalues --    0.45482   0.45851   0.46018   0.46457   0.46990
 Alpha virt. eigenvalues --    0.47631   0.48890   0.49499   0.49888   0.50566
 Alpha virt. eigenvalues --    0.51913   0.52252   0.52582   0.53195   0.53620
 Alpha virt. eigenvalues --    0.54027   0.54708   0.55189   0.55711   0.56798
 Alpha virt. eigenvalues --    0.57521   0.57933   0.58313   0.59194   0.59797
 Alpha virt. eigenvalues --    0.60406   0.60443   0.61803   0.61827   0.62431
 Alpha virt. eigenvalues --    0.63180   0.63449   0.63948   0.64693   0.65212
 Alpha virt. eigenvalues --    0.65500   0.65659   0.66400   0.66969   0.67256
 Alpha virt. eigenvalues --    0.67875   0.68847   0.69081   0.69900   0.70468
 Alpha virt. eigenvalues --    0.71011   0.71493   0.71800   0.72593   0.73242
 Alpha virt. eigenvalues --    0.73372   0.74402   0.74947   0.75263   0.76200
 Alpha virt. eigenvalues --    0.76916   0.77453   0.77752   0.78497   0.78720
 Alpha virt. eigenvalues --    0.79346   0.79629   0.80039   0.80966   0.81766
 Alpha virt. eigenvalues --    0.82632   0.83139   0.83818   0.84914   0.85104
 Alpha virt. eigenvalues --    0.85940   0.86944   0.88580   0.89239   0.89801
 Alpha virt. eigenvalues --    0.90793   0.91680   0.92521   0.93452   0.95263
 Alpha virt. eigenvalues --    0.96042   0.96581   0.97276   0.98451   0.98630
 Alpha virt. eigenvalues --    0.99336   1.00386   1.00878   1.02354   1.02965
 Alpha virt. eigenvalues --    1.03551   1.04036   1.04595   1.05968   1.06576
 Alpha virt. eigenvalues --    1.07735   1.08642   1.08691   1.09439   1.10563
 Alpha virt. eigenvalues --    1.11139   1.11836   1.12563   1.13039   1.13919
 Alpha virt. eigenvalues --    1.14183   1.15537   1.15726   1.16486   1.17396
 Alpha virt. eigenvalues --    1.17856   1.18708   1.19603   1.20317   1.20606
 Alpha virt. eigenvalues --    1.20623   1.21908   1.23229   1.23982   1.24398
 Alpha virt. eigenvalues --    1.25161   1.26238   1.26786   1.28260   1.29187
 Alpha virt. eigenvalues --    1.30141   1.31014   1.31614   1.32399   1.32918
 Alpha virt. eigenvalues --    1.34031   1.34993   1.35695   1.36099   1.36495
 Alpha virt. eigenvalues --    1.37138   1.37586   1.38828   1.39941   1.41166
 Alpha virt. eigenvalues --    1.42065   1.42973   1.44409   1.45344   1.45975
 Alpha virt. eigenvalues --    1.46634   1.48578   1.50348   1.50754   1.51945
 Alpha virt. eigenvalues --    1.53107   1.53918   1.55451   1.56516   1.56939
 Alpha virt. eigenvalues --    1.58612   1.60350   1.61589   1.62236   1.62928
 Alpha virt. eigenvalues --    1.63781   1.65711   1.66469   1.68058   1.69212
 Alpha virt. eigenvalues --    1.69481   1.70327   1.72207   1.72696   1.73923
 Alpha virt. eigenvalues --    1.74606   1.76421   1.77235   1.78064   1.79280
 Alpha virt. eigenvalues --    1.80869   1.82417   1.83530   1.84702   1.86525
 Alpha virt. eigenvalues --    1.88186   1.90441   1.91063   1.91365   1.92803
 Alpha virt. eigenvalues --    1.95618   1.96039   1.96515   1.98532   2.01256
 Alpha virt. eigenvalues --    2.03416   2.04697   2.05396   2.08516   2.08793
 Alpha virt. eigenvalues --    2.10802   2.11317   2.12078   2.14250   2.15155
 Alpha virt. eigenvalues --    2.16992   2.18062   2.18268   2.19698   2.21793
 Alpha virt. eigenvalues --    2.24393   2.24829   2.25961   2.26753   2.28834
 Alpha virt. eigenvalues --    2.29033   2.30402   2.32405   2.33536   2.34356
 Alpha virt. eigenvalues --    2.36370   2.36700   2.37137   2.37834   2.38127
 Alpha virt. eigenvalues --    2.40291   2.40779   2.43168   2.43935   2.44749
 Alpha virt. eigenvalues --    2.46665   2.48876   2.49229   2.49745   2.50403
 Alpha virt. eigenvalues --    2.51688   2.53564   2.56114   2.57870   2.59268
 Alpha virt. eigenvalues --    2.61789   2.62202   2.63762   2.64300   2.64676
 Alpha virt. eigenvalues --    2.66426   2.67233   2.70704   2.71072   2.72775
 Alpha virt. eigenvalues --    2.74397   2.75360   2.77402   2.79188   2.80023
 Alpha virt. eigenvalues --    2.81862   2.83519   2.84555   2.85141   2.86264
 Alpha virt. eigenvalues --    2.87437   2.88977   2.89653   2.90686   2.92968
 Alpha virt. eigenvalues --    2.94030   2.95728   2.98033   2.98694   3.00732
 Alpha virt. eigenvalues --    3.01769   3.05680   3.06971   3.07067   3.07216
 Alpha virt. eigenvalues --    3.09079   3.10355   3.10940   3.14989   3.18347
 Alpha virt. eigenvalues --    3.19224   3.22132   3.23083   3.24593   3.26363
 Alpha virt. eigenvalues --    3.27332   3.28804   3.30509   3.32236   3.34006
 Alpha virt. eigenvalues --    3.34898   3.35694   3.35872   3.37825   3.38724
 Alpha virt. eigenvalues --    3.39961   3.40419   3.41656   3.43391   3.43936
 Alpha virt. eigenvalues --    3.44715   3.46483   3.47503   3.48721   3.49336
 Alpha virt. eigenvalues --    3.49670   3.51280   3.52655   3.53494   3.54230
 Alpha virt. eigenvalues --    3.55471   3.55897   3.56738   3.57012   3.58501
 Alpha virt. eigenvalues --    3.58972   3.59729   3.60720   3.61218   3.63137
 Alpha virt. eigenvalues --    3.64045   3.64942   3.66091   3.67182   3.67410
 Alpha virt. eigenvalues --    3.69245   3.70488   3.72061   3.72524   3.72737
 Alpha virt. eigenvalues --    3.75092   3.76445   3.76849   3.78388   3.78724
 Alpha virt. eigenvalues --    3.80194   3.82190   3.82632   3.84455   3.85117
 Alpha virt. eigenvalues --    3.87433   3.88142   3.89298   3.91784   3.94785
 Alpha virt. eigenvalues --    3.96770   3.97829   4.01285   4.03316   4.06072
 Alpha virt. eigenvalues --    4.09712   4.09775   4.12017   4.15520   4.16293
 Alpha virt. eigenvalues --    4.17736   4.24320   4.25306   4.27486   4.28687
 Alpha virt. eigenvalues --    4.35555   4.39604   4.41765   4.43525   4.45586
 Alpha virt. eigenvalues --    4.54881   4.58197   4.59300   4.72988   4.77066
 Alpha virt. eigenvalues --    4.82676   4.99615   5.02024   5.06456   5.07730
 Alpha virt. eigenvalues --    5.09033   5.16489   5.18906   5.19204   5.25264
 Alpha virt. eigenvalues --    5.25670   5.27421   5.43311   5.45483   5.47616
 Alpha virt. eigenvalues --    5.55199   5.60681   5.63315   5.76989   5.81400
 Alpha virt. eigenvalues --    5.87888   6.02385   6.10118   6.75381   6.83449
 Alpha virt. eigenvalues --    6.83837   6.84844   6.90900   6.95717   6.96496
 Alpha virt. eigenvalues --    6.99079   6.99985   7.01457   7.04463   7.06115
 Alpha virt. eigenvalues --    7.08263   7.10800   7.14131   7.14951   7.19928
 Alpha virt. eigenvalues --    7.21763   7.29146   7.32188   7.34275   7.35844
 Alpha virt. eigenvalues --    7.38907   7.39938   7.54025   9.89902  23.66099
 Alpha virt. eigenvalues --   23.91601  23.94544  23.95584  23.98922  24.00413
 Alpha virt. eigenvalues --   24.00901  24.04107  24.07567  24.11091  24.13469
 Alpha virt. eigenvalues --   24.16948  24.32839  25.87608  26.28362  27.40636
 Alpha virt. eigenvalues --   35.77561  49.93229  49.99912  50.02775  50.03751
 Alpha virt. eigenvalues --   50.07078 215.90103
          Condensed to atoms (all electrons):
              1          2          3          4          5          6
     1  O    8.290732   0.443393  -0.047932  -0.036985   0.002293   0.016484
     2  C    0.443393   9.936264  -0.011779  -0.364570  -0.073958  -0.253235
     3  C   -0.047932  -0.011779   7.703432   0.475449  -0.196640   0.049150
     4  C   -0.036985  -0.364570   0.475449   6.996122   0.188046  -0.045886
     5  N    0.002293  -0.073958  -0.196640   0.188046   7.185424  -0.180428
     6  C    0.016484  -0.253235   0.049150  -0.045886  -0.180428  11.548643
     7  C   -0.002008   0.025436   0.118258   0.312586   0.101705  -3.273897
     8  O    0.000007  -0.001582  -0.001086  -0.021539   0.015915   0.035472
     9  C   -0.002580  -0.043710  -0.057404  -0.183193  -0.097738   1.250397
    10  C   -0.001149  -0.041768  -0.061099  -0.357119   0.059826  -0.015062
    11  O    0.000002   0.000380  -0.000607   0.003033   0.001712  -0.033609
    12  O    0.000000  -0.001058  -0.002037  -0.006233   0.000557  -0.002209
    13  C   -0.017435   0.046750  -0.304689  -0.607259   0.406813  -3.864822
    14  C    0.006859   0.033425  -0.041990  -0.297020   0.007552   0.319944
    15  O    0.020155  -0.159661   0.095444   0.225824  -0.086902  -0.033260
    16  C    0.012608  -0.138553   1.161152  -0.838435   0.024230   0.164256
    17  C   -0.031162  -1.335045  -0.956218   0.343142   0.061701  -0.074163
    18  Cl   0.000021   0.054907   0.087898  -0.042635   0.000611   0.001411
    19  C    0.005101  -0.181548  -1.006367  -0.442322  -0.017853   0.007853
    20  C   -0.350004  -1.614444  -1.104949   0.219502   0.019684  -0.105021
    21  H    0.264524  -0.033690  -0.003731   0.006694  -0.000874   0.000434
    22  H   -0.000031  -0.002114  -0.001325  -0.025683  -0.051776   0.518291
    23  H    0.000004  -0.001155  -0.000318   0.004098   0.008529  -0.036426
    24  H   -0.000002   0.000468   0.003934   0.005592   0.016352  -0.096633
    25  H    0.000225  -0.003348  -0.008749  -0.015701  -0.002965  -0.015197
    26  H    0.000055  -0.003276  -0.006099  -0.002207   0.004195  -0.015445
    27  H    0.000000  -0.000119  -0.000090  -0.001179  -0.000096   0.000216
    28  H    0.000631   0.018751  -0.004864  -0.018009  -0.000931  -0.087617
    29  H    0.000057   0.002645  -0.000515  -0.002086  -0.002233  -0.012628
    30  H    0.000139  -0.004558   0.005025  -0.015973   0.001362  -0.005946
    31  H    0.000018   0.000651  -0.000990  -0.004496   0.000278   0.014518
    32  H   -0.000377   0.026747  -0.004166  -0.016886   0.010356  -0.002600
    33  H   -0.000704   0.028063  -0.011294  -0.000385  -0.000044  -0.000038
    34  H    0.002188  -0.165215   0.006405   0.009544   0.000027   0.000105
              7          8          9         10         11         12
     1  O   -0.002008   0.000007  -0.002580  -0.001149   0.000002   0.000000
     2  C    0.025436  -0.001582  -0.043710  -0.041768   0.000380  -0.001058
     3  C    0.118258  -0.001086  -0.057404  -0.061099  -0.000607  -0.002037
     4  C    0.312586  -0.021539  -0.183193  -0.357119   0.003033  -0.006233
     5  N    0.101705   0.015915  -0.097738   0.059826   0.001712   0.000557
     6  C   -3.273897   0.035472   1.250397  -0.015062  -0.033609  -0.002209
     7  C    8.438499   0.065409  -1.053107  -0.279766   0.032962  -0.044572
     8  O    0.065409   8.225851   0.006031  -0.026453   0.005378   0.004551
     9  C   -1.053107   0.006031   7.279582  -1.040291   0.034652   0.087905
    10  C   -0.279766  -0.026453  -1.040291   6.565101   0.203929   0.319166
    11  O    0.032962   0.005378   0.034652   0.203929   7.992980  -0.091296
    12  O   -0.044572   0.004551   0.087905   0.319166  -0.091296   8.273874
    13  C    1.453975  -0.024424  -0.478587   0.057697   0.021744  -0.000849
    14  C   -0.503683   0.011793   0.032086   0.086377  -0.006096  -0.000702
    15  O    0.010730   0.001842   0.007265   0.015224  -0.000233   0.000506
    16  C    0.046405   0.001556  -0.056682  -0.029080   0.000561   0.002024
    17  C   -0.013603  -0.000573   0.002875   0.013062   0.000089   0.000730
    18  Cl  -0.000025  -0.000009   0.001543   0.000653   0.000001  -0.000012
    19  C    0.002389  -0.000040  -0.020081  -0.012635   0.000001   0.000071
    20  C   -0.025694  -0.000155   0.028001   0.012466   0.000009  -0.000061
    21  H    0.003575   0.000004  -0.004715  -0.000840  -0.000003   0.000002
    22  H   -0.085845  -0.001844  -0.000498  -0.002102  -0.000009   0.000006
    23  H    0.517384  -0.052366  -0.049010  -0.030158  -0.006372   0.000406
    24  H    0.138959   0.251457  -0.026411  -0.016400  -0.000088  -0.000927
    25  H   -0.041920   0.008423   0.396834   0.009379  -0.003131  -0.000198
    26  H   -0.003355  -0.008085   0.432694  -0.085971   0.006705   0.002135
    27  H   -0.006927   0.000072  -0.061173   0.064127   0.248617   0.009584
    28  H    0.018453  -0.000727   0.002044   0.000031   0.000000  -0.000004
    29  H    0.010450   0.000447  -0.003397   0.000076   0.002059  -0.000127
    30  H    0.004557  -0.000047   0.001426   0.000467   0.000005   0.000001
    31  H   -0.020337   0.000054   0.006677  -0.001676  -0.000073   0.000005
    32  H    0.001857  -0.000112  -0.000805   0.000316  -0.000001   0.000003
    33  H   -0.000011   0.000000   0.000012   0.000002   0.000000   0.000000
    34  H    0.000013   0.000000  -0.000026  -0.000004   0.000000   0.000000
             13         14         15         16         17         18
     1  O   -0.017435   0.006859   0.020155   0.012608  -0.031162   0.000021
     2  C    0.046750   0.033425  -0.159661  -0.138553  -1.335045   0.054907
     3  C   -0.304689  -0.041990   0.095444   1.161152  -0.956218   0.087898
     4  C   -0.607259  -0.297020   0.225824  -0.838435   0.343142  -0.042635
     5  N    0.406813   0.007552  -0.086902   0.024230   0.061701   0.000611
     6  C   -3.864822   0.319944  -0.033260   0.164256  -0.074163   0.001411
     7  C    1.453975  -0.503683   0.010730   0.046405  -0.013603  -0.000025
     8  O   -0.024424   0.011793   0.001842   0.001556  -0.000573  -0.000009
     9  C   -0.478587   0.032086   0.007265  -0.056682   0.002875   0.001543
    10  C    0.057697   0.086377   0.015224  -0.029080   0.013062   0.000653
    11  O    0.021744  -0.006096  -0.000233   0.000561   0.000089   0.000001
    12  O   -0.000849  -0.000702   0.000506   0.002024   0.000730  -0.000012
    13  C    8.703705  -0.098876   0.109256  -0.285770   0.134184  -0.000246
    14  C   -0.098876   5.901379  -0.116058  -0.055532   0.002795  -0.000093
    15  O    0.109256  -0.116058   8.342656   0.015844   0.002493  -0.000256
    16  C   -0.285770  -0.055532   0.015844   8.017666   0.121480   0.207488
    17  C    0.134184   0.002795   0.002493   0.121480   9.434804  -0.586565
    18  Cl  -0.000246  -0.000093  -0.000256   0.207488  -0.586565  17.072466
    19  C   -0.044908  -0.002217   0.000333  -0.428236  -1.862319   0.254946
    20  C    0.175084   0.027930   0.005661  -1.507371  -0.142727   0.036327
    21  H    0.016463  -0.016263   0.034577   0.008544   0.004845   0.000068
    22  H   -0.047194   0.018654   0.008808   0.006009   0.001267   0.000002
    23  H   -0.029292  -0.002616  -0.001425   0.001696   0.000071   0.000000
    24  H    0.027006  -0.000766  -0.000857  -0.005411  -0.000216  -0.000001
    25  H    0.029504  -0.007649   0.006441   0.000621   0.000523  -0.000004
    26  H   -0.011211  -0.000017  -0.001635   0.020219   0.004419   0.000035
    27  H   -0.000854   0.000713   0.000021   0.000071   0.000008   0.000000
    28  H    0.493215  -0.030844  -0.061867  -0.011512  -0.002106  -0.000006
    29  H   -0.021025   0.399129   0.000245  -0.000831  -0.000298   0.000000
    30  H   -0.001681   0.396049  -0.003655   0.000700   0.000102   0.000000
    31  H   -0.067835   0.445523   0.007454  -0.000327  -0.000017   0.000000
    32  H    0.002563   0.000167   0.000154   0.415087  -0.099311  -0.011090
    33  H    0.000087   0.000004   0.000007   0.012791  -0.065443  -0.003295
    34  H   -0.000162  -0.000053  -0.000065  -0.021674   0.048728  -0.000951
             19         20         21         22         23         24
     1  O    0.005101  -0.350004   0.264524  -0.000031   0.000004  -0.000002
     2  C   -0.181548  -1.614444  -0.033690  -0.002114  -0.001155   0.000468
     3  C   -1.006367  -1.104949  -0.003731  -0.001325  -0.000318   0.003934
     4  C   -0.442322   0.219502   0.006694  -0.025683   0.004098   0.005592
     5  N   -0.017853   0.019684  -0.000874  -0.051776   0.008529   0.016352
     6  C    0.007853  -0.105021   0.000434   0.518291  -0.036426  -0.096633
     7  C    0.002389  -0.025694   0.003575  -0.085845   0.517384   0.138959
     8  O   -0.000040  -0.000155   0.000004  -0.001844  -0.052366   0.251457
     9  C   -0.020081   0.028001  -0.004715  -0.000498  -0.049010  -0.026411
    10  C   -0.012635   0.012466  -0.000840  -0.002102  -0.030158  -0.016400
    11  O    0.000001   0.000009  -0.000003  -0.000009  -0.006372  -0.000088
    12  O    0.000071  -0.000061   0.000002   0.000006   0.000406  -0.000927
    13  C   -0.044908   0.175084   0.016463  -0.047194  -0.029292   0.027006
    14  C   -0.002217   0.027930  -0.016263   0.018654  -0.002616  -0.000766
    15  O    0.000333   0.005661   0.034577   0.008808  -0.001425  -0.000857
    16  C   -0.428236  -1.507371   0.008544   0.006009   0.001696  -0.005411
    17  C   -1.862319  -0.142727   0.004845   0.001267   0.000071  -0.000216
    18  Cl   0.254946   0.036327   0.000068   0.000002   0.000000  -0.000001
    19  C    9.693048   0.316013  -0.003838   0.000105   0.000001  -0.000031
    20  C    0.316013   9.475237   0.035068  -0.000134  -0.000079   0.000086
    21  H   -0.003838   0.035068   0.299382   0.000008  -0.000002   0.000000
    22  H    0.000105  -0.000134   0.000008   0.557302  -0.004821  -0.000160
    23  H    0.000001  -0.000079  -0.000002  -0.004821   0.532239   0.004528
    24  H   -0.000031   0.000086   0.000000  -0.000160   0.004528   0.396262
    25  H   -0.000131   0.000247  -0.000132  -0.000055  -0.004922  -0.000415
    26  H    0.000932  -0.001046  -0.000007  -0.000211   0.005340   0.000411
    27  H   -0.000001  -0.000008   0.000000  -0.000003  -0.000368  -0.000011
    28  H    0.000358   0.001954  -0.000998  -0.012199  -0.000323  -0.000020
    29  H    0.000084   0.000051   0.000129  -0.000293  -0.003895  -0.000070
    30  H   -0.000053  -0.000696  -0.000304  -0.000265   0.000346   0.000003
    31  H   -0.000007   0.000097  -0.000032  -0.000300   0.000209  -0.000017
    32  H    0.021382  -0.007474   0.000011   0.000036  -0.000006   0.000041
    33  H    0.418110  -0.040366   0.000012   0.000000   0.000000   0.000000
    34  H   -0.099404   0.571417   0.000971   0.000000   0.000000   0.000000
             25         26         27         28         29         30
     1  O    0.000225   0.000055   0.000000   0.000631   0.000057   0.000139
     2  C   -0.003348  -0.003276  -0.000119   0.018751   0.002645  -0.004558
     3  C   -0.008749  -0.006099  -0.000090  -0.004864  -0.000515   0.005025
     4  C   -0.015701  -0.002207  -0.001179  -0.018009  -0.002086  -0.015973
     5  N   -0.002965   0.004195  -0.000096  -0.000931  -0.002233   0.001362
     6  C   -0.015197  -0.015445   0.000216  -0.087617  -0.012628  -0.005946
     7  C   -0.041920  -0.003355  -0.006927   0.018453   0.010450   0.004557
     8  O    0.008423  -0.008085   0.000072  -0.000727   0.000447  -0.000047
     9  C    0.396834   0.432694  -0.061173   0.002044  -0.003397   0.001426
    10  C    0.009379  -0.085971   0.064127   0.000031   0.000076   0.000467
    11  O   -0.003131   0.006705   0.248617   0.000000   0.002059   0.000005
    12  O   -0.000198   0.002135   0.009584  -0.000004  -0.000127   0.000001
    13  C    0.029504  -0.011211  -0.000854   0.493215  -0.021025  -0.001681
    14  C   -0.007649  -0.000017   0.000713  -0.030844   0.399129   0.396049
    15  O    0.006441  -0.001635   0.000021  -0.061867   0.000245  -0.003655
    16  C    0.000621   0.020219   0.000071  -0.011512  -0.000831   0.000700
    17  C    0.000523   0.004419   0.000008  -0.002106  -0.000298   0.000102
    18  Cl  -0.000004   0.000035   0.000000  -0.000006   0.000000   0.000000
    19  C   -0.000131   0.000932  -0.000001   0.000358   0.000084  -0.000053
    20  C    0.000247  -0.001046  -0.000008   0.001954   0.000051  -0.000696
    21  H   -0.000132  -0.000007   0.000000  -0.000998   0.000129  -0.000304
    22  H   -0.000055  -0.000211  -0.000003  -0.012199  -0.000293  -0.000265
    23  H   -0.004922   0.005340  -0.000368  -0.000323  -0.003895   0.000346
    24  H   -0.000415   0.000411  -0.000011  -0.000020  -0.000070   0.000003
    25  H    0.494155  -0.027540   0.000191   0.000135  -0.000064  -0.000060
    26  H   -0.027540   0.506530  -0.000470   0.000004   0.000262   0.000007
    27  H    0.000191  -0.000470   0.388271   0.000000  -0.000031  -0.000002
    28  H    0.000135   0.000004   0.000000   0.569965   0.006279  -0.007536
    29  H   -0.000064   0.000262  -0.000031   0.006279   0.530479  -0.027516
    30  H   -0.000060   0.000007  -0.000002  -0.007536  -0.027516   0.527889
    31  H    0.000007  -0.000029  -0.000013  -0.003756  -0.026754  -0.023527
    32  H   -0.000008   0.000016   0.000000  -0.000002  -0.000001   0.000000
    33  H    0.000000   0.000000   0.000000   0.000000   0.000000   0.000000
    34  H    0.000000   0.000000   0.000000   0.000000   0.000000   0.000000
             31         32         33         34
     1  O    0.000018  -0.000377  -0.000704   0.002188
     2  C    0.000651   0.026747   0.028063  -0.165215
     3  C   -0.000990  -0.004166  -0.011294   0.006405
     4  C   -0.004496  -0.016886  -0.000385   0.009544
     5  N    0.000278   0.010356  -0.000044   0.000027
     6  C    0.014518  -0.002600  -0.000038   0.000105
     7  C   -0.020337   0.001857  -0.000011   0.000013
     8  O    0.000054  -0.000112   0.000000   0.000000
     9  C    0.006677  -0.000805   0.000012  -0.000026
    10  C   -0.001676   0.000316   0.000002  -0.000004
    11  O   -0.000073  -0.000001   0.000000   0.000000
    12  O    0.000005   0.000003   0.000000   0.000000
    13  C   -0.067835   0.002563   0.000087  -0.000162
    14  C    0.445523   0.000167   0.000004  -0.000053
    15  O    0.007454   0.000154   0.000007  -0.000065
    16  C   -0.000327   0.415087   0.012791  -0.021674
    17  C   -0.000017  -0.099311  -0.065443   0.048728
    18  Cl   0.000000  -0.011090  -0.003295  -0.000951
    19  C   -0.000007   0.021382   0.418110  -0.099404
    20  C    0.000097  -0.007474  -0.040366   0.571417
    21  H   -0.000032   0.000011   0.000012   0.000971
    22  H   -0.000300   0.000036   0.000000   0.000000
    23  H    0.000209  -0.000006   0.000000   0.000000
    24  H   -0.000017   0.000041   0.000000   0.000000
    25  H    0.000007  -0.000008   0.000000   0.000000
    26  H   -0.000029   0.000016   0.000000   0.000000
    27  H   -0.000013   0.000000   0.000000   0.000000
    28  H   -0.003756  -0.000002   0.000000   0.000000
    29  H   -0.026754  -0.000001   0.000000   0.000000
    30  H   -0.023527   0.000000   0.000000   0.000000
    31  H    0.510043   0.000000   0.000000   0.000000
    32  H    0.000000   0.496971  -0.000088   0.000044
    33  H    0.000000  -0.000088   0.516179  -0.004828
    34  H    0.000000   0.000044  -0.004828   0.518174
 Mulliken atomic charges:
              1
     1  O   -0.575128
     2  C   -0.183496
     3  C    0.128792
     4  C    0.556172
     5  N   -0.404730
     6  C    0.226949
     7  C    0.051147
     8  O   -0.495222
     9  C   -0.390617
    10  C    0.593674
    11  O   -0.413303
    12  O   -0.551243
    13  C    0.229073
    14  C   -0.509903
    15  O   -0.445063
    16  C   -0.861596
    17  C    0.992448
    18  Cl  -0.073190
    19  C   -0.598739
    20  C   -0.024607
    21  H    0.390119
    22  H    0.126374
    23  H    0.148703
    24  H    0.303338
    25  H    0.185506
    26  H    0.182645
    27  H    0.359454
    28  H    0.131501
    29  H    0.149371
    30  H    0.153745
    31  H    0.164652
    32  H    0.167177
    33  H    0.151230
    34  H    0.134765
 Sum of Mulliken atomic charges =   0.00000
 Mulliken charges with hydrogens summed into heavy atoms:
              1
     1  O   -0.185010
     2  C   -0.183496
     3  C    0.128792
     4  C    0.556172
     5  N   -0.404730
     6  C    0.353323
     7  C    0.199850
     8  O   -0.191884
     9  C   -0.022465
    10  C    0.593674
    11  O   -0.053848
    12  O   -0.551243
    13  C    0.360574
    14  C   -0.042135
    15  O   -0.445063
    16  C   -0.694419
    17  C    0.992448
    18  Cl  -0.073190
    19  C   -0.447509
    20  C    0.110158
 Sum of Mulliken charges with hydrogens summed into heavy atoms =   0.00000
 Electronic spatial extent (au):  <R**2>=           7261.6485
 Charge=              0.0000 electrons
 Dipole moment (field-independent basis, Debye):
    X=              2.4075    Y=              6.5667    Z=             -0.3077  Tot=              7.0009
 Quadrupole moment (field-independent basis, Debye-Ang):
   XX=           -115.8983   YY=           -133.1855   ZZ=           -127.4497
   XY=             11.6104   XZ=              0.7511   YZ=              1.3643
 Traceless Quadrupole moment (field-independent basis, Debye-Ang):
   XX=              9.6129   YY=             -7.6743   ZZ=             -1.9386
   XY=             11.6104   XZ=              0.7511   YZ=              1.3643
 Octapole moment (field-independent basis, Debye-Ang**2):
  XXX=             80.2364  YYY=             48.1683  ZZZ=             -7.1588  XYY=             12.3397
  XXY=             45.9013  XXZ=            -66.5309  XZZ=             13.5662  YZZ=             11.7115
  YYZ=             32.8591  XYZ=              7.7174
 Hexadecapole moment (field-independent basis, Debye-Ang**3):
 XXXX=          -5789.2388 YYYY=          -2243.8305 ZZZZ=           -897.4629 XXXY=           -169.0772
 XXXZ=           -119.0040 YYYX=            162.8560 YYYZ=            -56.2562 ZZZX=            -46.7394
 ZZZY=              5.6359 XXYY=          -1534.9939 XXZZ=          -1171.1239 YYZZ=           -534.3301
 XXYZ=             67.3358 YYXZ=             30.5226 ZZXY=             22.3681
 N-N= 1.702467629747D+03 E-N=-6.684215622837D+03  KE= 1.390539670750D+03
 1\1\GINC-PROD2-0057\SP\RB3LYP\6-311+G(2d,p)\C13H14Cl1N1O5\YUHENG\26-Ma
 r-2019\0\\# b3lyp/6-311+G(2d,p) nmr guess=read geom=check integral(ult
 rafinegrid) scrf=(iefpcm,read,solvent=methanol)\\Candidate Structure: 
 1b, Conformer: 15, NMR calculation with methanol solvation\\0,1\O,0,-1
 .769588542,2.7165900939,-1.1548535051\C,0,-2.2759797264,1.5386077901,-
 0.7324872267\C,0,-1.5981427327,0.6167749207,0.087617155\C,0,-0.2328983
 831,0.834912024,0.5913992211\N,0,0.3865190557,0.1052425224,1.433481511
 3\C,0,1.7560080518,0.6378534193,1.5174860756\C,0,2.7349779679,-0.33194
 17695,0.8330624334\O,0,2.9452645242,-1.4734634159,1.6437951175\C,0,2.2
 797378947,-0.7680422571,-0.5664691501\C,0,3.3319209473,-1.6167308783,-
 1.2324249706\O,0,4.4998380831,-0.9710252487,-1.3444490444\O,0,3.166498
 6253,-2.7501772053,-1.6270044877\C,0,1.6336097898,2.0480906919,0.90497
 74143\C,0,2.7755897146,2.6085083749,0.0864823618\O,0,0.439926903,1.908
 6678605,0.0825889443\C,0,-2.2396146488,-0.5753199469,0.4623823396\C,0,
 -3.5235877786,-0.8385197901,0.0303122439\Cl,0,-4.3093999497,-2.3273213
 622,0.5023142567\C,0,-4.2056830614,0.0700582813,-0.7836678995\C,0,-3.5
 804917222,1.2465720516,-1.1569652943\H,0,-0.8620769464,2.8449705064,-0
 .8277140792\H,0,2.0682692769,0.7053107834,2.5643955653\H,0,3.712747608
 9,0.1568567564,0.7641499026\H,0,2.0887650117,-1.9121903195,1.795399289
 6\H,0,2.0826374793,0.1011047212,-1.2045900169\H,0,1.3634506201,-1.3590
 211797,-0.4980351441\H,0,5.1524046009,-1.5609807286,-1.7767727038\H,0,
 1.3670778569,2.7529033089,1.7021923096\H,0,3.0434503529,1.9647250297,-
 0.7539726894\H,0,2.5051032898,3.5923063113,-0.3036455322\H,0,3.6540722
 883,2.7283084625,0.7269252165\H,0,-1.7060835033,-1.2792258852,1.093841
 3183\H,0,-5.2157957463,-0.147211008,-1.118984436\H,0,-4.0880510603,1.9
 702345939,-1.7877463614\\Version=EM64L-G09RevB.01\State=1-A\HF=-1395.2
 482368\RMSD=5.091e-09\Dipole=0.9471644,2.5835406,-0.121049\Quadrupole=
 7.1469406,-5.7056506,-1.44129,8.6320704,0.5584245,1.0143493\PG=C01 [X(
 C13H14Cl1N1O5)]\\@



 IN THIS SHORT LIFE

 THAT ONLY LASTS AN HOUR

 HOW MUCH, HOW LITTLE, IS WITHIN OUR POWER....


 EMILY DICKINSON BOLTS OF MELODY NO. 521
 Job cpu time:  0 days  2 hours 37 minutes 30.5 seconds.
 File lengths (MBytes):  RWF=    329 Int=      0 D2E=      0 Chk=     32 Scr=      1
 Normal termination of Gaussian 09 at Tue Mar 26 02:59:30 2019.
