 Entering Gaussian System, Link 0=g09
 Initial command:
 /home/yuheng/proj/yuheng/g09/l1.exe /home/yuheng/proj/yuheng/g09_scratch/Gau-44857.inp -scrdir=/home/yuheng/proj/yuheng/g09_scratch/
 Entering Link 1 = /home/yuheng/proj/yuheng/g09/l1.exe PID=     44858.
  
 Copyright (c) 1988,1990,1992,1993,1995,1998,2003,2009,2010,
            Gaussian, Inc.  All Rights Reserved.
  
 This is part of the Gaussian(R) 09 program.  It is based on
 the Gaussian(R) 03 system (copyright 2003, Gaussian, Inc.),
 the Gaussian(R) 98 system (copyright 1998, Gaussian, Inc.),
 the Gaussian(R) 94 system (copyright 1995, Gaussian, Inc.),
 the Gaussian 92(TM) system (copyright 1992, Gaussian, Inc.),
 the Gaussian 90(TM) system (copyright 1990, Gaussian, Inc.),
 the Gaussian 88(TM) system (copyright 1988, Gaussian, Inc.),
 the Gaussian 86(TM) system (copyright 1986, Carnegie Mellon
 University), and the Gaussian 82(TM) system (copyright 1983,
 Carnegie Mellon University). Gaussian is a federally registered
 trademark of Gaussian, Inc.
  
 This software contains proprietary and confidential information,
 including trade secrets, belonging to Gaussian, Inc.
  
 This software is provided under written license and may be
 used, copied, transmitted, or stored only in accord with that
 written license.
  
 The following legend is applicable only to US Government
 contracts under FAR:
  
                    RESTRICTED RIGHTS LEGEND
  
 Use, reproduction and disclosure by the US Government is
 subject to restrictions as set forth in subparagraphs (a)
 and (c) of the Commercial Computer Software - Restricted
 Rights clause in FAR 52.227-19.
  
 Gaussian, Inc.
 340 Quinnipiac St., Bldg. 40, Wallingford CT 06492
  
  
 ---------------------------------------------------------------
 Warning -- This program may not be used in any manner that
 competes with the business of Gaussian, Inc. or will provide
 assistance to any competitor of Gaussian, Inc.  The licensee
 of this program is prohibited from giving any competitor of
 Gaussian, Inc. access to this program.  By using this program,
 the user acknowledges that Gaussian, Inc. is engaged in the
 business of creating and licensing software in the field of
 computational chemistry and represents and warrants to the
 licensee that it is not a competitor of Gaussian, Inc. and that
 it will not use this program in any manner prohibited above.
 ---------------------------------------------------------------
  

 Cite this work as:
 Gaussian 09, Revision B.01,
 M. J. Frisch, G. W. Trucks, H. B. Schlegel, G. E. Scuseria, 
 M. A. Robb, J. R. Cheeseman, G. Scalmani, V. Barone, B. Mennucci, 
 G. A. Petersson, H. Nakatsuji, M. Caricato, X. Li, H. P. Hratchian, 
 A. F. Izmaylov, J. Bloino, G. Zheng, J. L. Sonnenberg, M. Hada, 
 M. Ehara, K. Toyota, R. Fukuda, J. Hasegawa, M. Ishida, T. Nakajima, 
 Y. Honda, O. Kitao, H. Nakai, T. Vreven, J. A. Montgomery, Jr., 
 J. E. Peralta, F. Ogliaro, M. Bearpark, J. J. Heyd, E. Brothers, 
 K. N. Kudin, V. N. Staroverov, T. Keith, R. Kobayashi, J. Normand, 
 K. Raghavachari, A. Rendell, J. C. Burant, S. S. Iyengar, J. Tomasi, 
 M. Cossi, N. Rega, J. M. Millam, M. Klene, J. E. Knox, J. B. Cross, 
 V. Bakken, C. Adamo, J. Jaramillo, R. Gomperts, R. E. Stratmann, 
 O. Yazyev, A. J. Austin, R. Cammi, C. Pomelli, J. W. Ochterski, 
 R. L. Martin, K. Morokuma, V. G. Zakrzewski, G. A. Voth, 
 P. Salvador, J. J. Dannenberg, S. Dapprich, A. D. Daniels, 
 O. Farkas, J. B. Foresman, J. V. Ortiz, J. Cioslowski, 
 and D. J. Fox, Gaussian, Inc., Wallingford CT, 2010.
 
 ******************************************
 Gaussian 09:  EM64L-G09RevB.01 12-Aug-2010
                26-Mar-2019 
 ******************************************
 %mem=16gb
 %nprocshared=20
 Will use up to   20 processors via shared memory.
 %chk=1b-conf-13.chk
 ----------------------------------------------------------------------
 # b3lyp/6-311+G(2d,p) nmr guess=read geom=check integral(ultrafinegrid
 ) scrf=(iefpcm,read,solvent=methanol)
 ----------------------------------------------------------------------
 1/29=2,38=1,40=2/1;
 2/12=2,40=1/2;
 3/5=4,6=6,7=112,11=2,14=-4,16=1,25=1,30=1,70=2203,72=3,74=-5,75=-5,116=-2/1,2,8,3;
 4/5=1/1;
 5/5=2,38=6,53=3/2;
 8/6=1,10=90,11=11/1;
 10/13=100,45=16/2;
 6/7=2,8=2,9=2,10=2,28=1/1;
 99/9=1/99;
 ----------------------------------------------------------------------
 Candidate Structure: 1b, Conformer: 13, NMR calculation with methanol 
 solvation
 ----------------------------------------------------------------------
 Redundant internal coordinates taken from checkpoint file:
 1b-conf-13.chk
 Charge =  0 Multiplicity = 1
 O,0,-0.729830617,2.7920735953,0.0618447623
 C,0,-1.6079827693,1.7768822091,0.0362653501
 C,0,-1.2604655501,0.4822843129,-0.3969001255
 C,0,0.1094561624,0.213152731,-0.8210730209
 N,0,1.0311353597,1.1060436312,-0.897934281
 C,0,2.2761047723,0.4087417482,-1.2440395658
 C,0,3.297477081,0.4882559478,-0.080899341
 O,0,4.0860815878,1.6588542332,-0.2254212594
 C,0,2.6880449332,0.5087987166,1.3354716809
 C,0,1.9695733323,-0.7438766074,1.7647187126
 O,0,2.819578099,-1.7407604499,2.0518025361
 O,0,0.7677320722,-0.86352413,1.8572050239
 C,0,1.7631745535,-0.9746046259,-1.7189580208
 C,0,2.5460264488,-2.2168852535,-1.368305623
 O,0,0.4284683454,-1.0501805823,-1.1482058294
 C,0,-2.2158998398,-0.5404972326,-0.4031211415
 C,0,-3.5034657289,-0.2688935288,0.0185046171
 Cl,0,-4.7035568347,-1.5424182531,0.0053224046
 C,0,-3.863108819,1.0083564273,0.4551130841
 C,0,-2.9184657016,2.0223186457,0.4637862599
 H,0,0.1427901631,2.4634001894,-0.2799527647
 H,0,2.7620446976,0.9152398557,-2.0836586141
 H,0,4.0021476557,-0.3456399146,-0.1692532262
 H,0,3.5037420296,2.4390884296,-0.2281100218
 H,0,1.9832135475,1.3395945349,1.4130807364
 H,0,3.5194999648,0.6740288779,2.0259984003
 H,0,2.30675765,-2.5265875202,2.336917746
 H,0,1.6172171166,-0.9267986042,-2.8047832241
 H,0,2.6798256141,-2.3292705576,-0.291144212
 H,0,2.0266806825,-3.0985968337,-1.7500802417
 H,0,3.5321069035,-2.1724968322,-1.8398775169
 H,0,-1.9355980756,-1.5345903367,-0.7381300543
 H,0,-4.8796516143,1.2033918492,0.7840548956
 H,0,-3.1773068105,3.0221394738,0.7988181213
 Recover connectivity data from disk.
                          Input orientation:                          
 ---------------------------------------------------------------------
 Center     Atomic      Atomic             Coordinates (Angstroms)
 Number     Number       Type             X           Y           Z
 ---------------------------------------------------------------------
      1          8           0       -0.729831    2.792074    0.061845
      2          6           0       -1.607983    1.776882    0.036265
      3          6           0       -1.260466    0.482284   -0.396900
      4          6           0        0.109456    0.213153   -0.821073
      5          7           0        1.031135    1.106044   -0.897934
      6          6           0        2.276105    0.408742   -1.244040
      7          6           0        3.297477    0.488256   -0.080899
      8          8           0        4.086082    1.658854   -0.225421
      9          6           0        2.688045    0.508799    1.335472
     10          6           0        1.969573   -0.743877    1.764719
     11          8           0        2.819578   -1.740760    2.051803
     12          8           0        0.767732   -0.863524    1.857205
     13          6           0        1.763175   -0.974605   -1.718958
     14          6           0        2.546026   -2.216885   -1.368306
     15          8           0        0.428468   -1.050181   -1.148206
     16          6           0       -2.215900   -0.540497   -0.403121
     17          6           0       -3.503466   -0.268894    0.018505
     18         17           0       -4.703557   -1.542418    0.005322
     19          6           0       -3.863109    1.008356    0.455113
     20          6           0       -2.918466    2.022319    0.463786
     21          1           0        0.142790    2.463400   -0.279953
     22          1           0        2.762045    0.915240   -2.083659
     23          1           0        4.002148   -0.345640   -0.169253
     24          1           0        3.503742    2.439088   -0.228110
     25          1           0        1.983214    1.339595    1.413081
     26          1           0        3.519500    0.674029    2.025998
     27          1           0        2.306758   -2.526588    2.336918
     28          1           0        1.617217   -0.926799   -2.804783
     29          1           0        2.679826   -2.329271   -0.291144
     30          1           0        2.026681   -3.098597   -1.750080
     31          1           0        3.532107   -2.172497   -1.839878
     32          1           0       -1.935598   -1.534590   -0.738130
     33          1           0       -4.879652    1.203392    0.784055
     34          1           0       -3.177307    3.022139    0.798818
 ---------------------------------------------------------------------
                    Distance matrix (angstroms):
                    1          2          3          4          5
     1  O    0.000000
     2  C    1.342542   0.000000
     3  C    2.413948   1.408682   0.000000
     4  C    2.852153   2.475859   1.459123   0.000000
     5  N    2.620090   2.878836   2.427251   1.285556   0.000000
     6  C    4.052314   4.312438   3.637359   2.216195   1.468321
     7  C    4.641892   5.073246   4.568888   3.284359   2.487069
     8  O    4.955776   5.701296   5.477161   4.272985   3.176566
     9  C    4.303178   4.663885   4.311908   3.374494   2.844319
    10  C    4.763350   4.705389   4.075441   3.325998   3.375291
    11  O    6.091372   6.003290   5.252126   4.406354   4.472557
    12  O    4.339286   3.991439   3.317495   2.960698   3.396965
    13  C    4.855327   4.692141   3.607321   2.225253   2.353520
    14  C    6.153555   5.931171   4.766396   3.484454   3.682119
    15  O    4.191515   3.679999   2.401126   1.343427   2.252809
    16  C    3.678400   2.435749   1.399634   2.479910   3.674122
    17  C    4.130914   2.788973   2.401641   3.740383   4.826274
    18  Cl   5.880605   4.538865   4.014484   5.189417   6.380981
    19  C    3.626808   2.419020   2.788625   4.247620   5.078770
    20  C    2.354613   1.400135   2.421043   3.753965   4.277054
    21  H    0.993136   1.906963   2.430560   2.314635   1.735936
    22  H    4.507647   4.932914   4.383286   3.020476   2.106750
    23  H    5.682453   6.001742   5.332202   3.986247   3.386041
    24  H    4.258146   5.161215   5.153178   4.102142   2.887812
    25  H    3.360973   3.870857   3.812147   3.125905   2.510336
    26  H    5.138173   5.609492   5.362394   4.466164   3.863674
    27  H    6.533374   6.256041   5.408526   4.723052   5.028667
    28  H    5.249400   5.077732   4.008051   2.740062   2.848159
    29  H    6.162672   5.945838   4.841686   3.653976   3.858466
    30  H    6.751402   6.338147   5.045705   3.937828   4.404119
    31  H    6.813782   6.748187   5.665580   4.294627   4.229769
    32  H    4.562220   3.416558   2.154072   2.691418   3.974920
    33  H    4.501834   3.404688   3.874682   5.333686   6.146216
    34  H    2.566359   2.143579   3.399248   4.617062   4.925584
                    6          7          8          9         10
     6  C    0.000000
     7  C    1.549974   0.000000
     8  O    2.424125   1.418832   0.000000
     9  C    2.614113   1.542056   2.390297   0.000000
    10  C    3.236529   2.586075   3.770064   1.506536   0.000000
    11  O    3.972191   3.121749   4.283358   2.364518   1.341157
    12  O    3.675808   3.461671   4.659524   2.417246   1.211318
    13  C    1.549933   2.679045   3.815974   3.519291   3.497405
    14  C    2.642388   3.088670   4.324270   3.841866   3.509686
    15  O    2.356141   3.425951   4.644194   3.701994   3.309676
    16  C    4.667580   5.617783   6.677102   5.307768   4.717953
    17  C    5.954548   6.843682   7.834344   6.377618   5.764463
    18  Cl   7.354156   8.255157   9.357304   7.785407   6.947216
    19  C    6.398172   7.199431   8.004743   6.628892   6.229412
    20  C    5.701216   6.425572   7.047751   5.872269   5.765170
    21  H    3.114822   3.727314   4.024899   3.592824   4.219531
    22  H    1.094367   2.116612   2.399809   3.443998   4.265054
    23  H    2.168751   1.095331   2.007037   2.172816   2.833760
    24  H    2.580991   1.967222   0.973597   2.614607   4.056637
    25  H    2.830647   2.164265   2.684897   1.092260   2.112981
    26  H    3.508498   2.126693   2.521862   1.093364   2.116836
    27  H    4.630373   3.989567   5.220105   3.218982   1.902410
    28  H    2.157249   3.499314   4.408401   4.511022   4.586716
    29  H    2.927065   2.892084   4.229304   3.271175   2.691562
    30  H    3.552424   4.155310   5.403615   4.792842   4.231050
    31  H    2.931784   3.198228   4.194354   4.240829   4.180380
    32  H    4.665932   5.648799   6.835319   5.463821   4.705300
    33  H    7.479939   8.253787   9.033873   7.619485   7.187867
    34  H    6.383010   7.008373   7.460859   6.403689   6.450288
                   11         12         13         14         15
    11  O    0.000000
    12  O    2.239974   0.000000
    13  C    3.990190   3.713783   0.000000
    14  C    3.463909   3.924008   1.509661   0.000000
    15  O    4.053931   3.030253   1.453585   2.427694   0.000000
    16  C    5.729164   3.757057   4.213420   5.139825   2.794210
    17  C    6.803056   4.688020   5.590555   6.504942   4.175132
    18  Cl   7.799037   5.815958   6.716708   7.409333   5.283049
    19  C    7.400363   5.187917   6.349314   7.402976   5.022533
    20  C    7.043274   4.884440   5.971907   7.154585   4.820865
    21  H    5.502476   4.003301   4.064020   5.372628   3.630527
    22  H    4.915250   4.761480   2.168470   3.220031   3.191164
    23  H    2.877138   3.851776   2.794670   2.656986   3.771725
    24  H    4.810116   4.768809   4.111630   4.888288   4.741190
    25  H    3.255159   2.555068   3.900462   4.549881   3.832551
    26  H    2.514312   3.156705   4.452794   4.563588   4.754256
    27  H    0.980714   2.316140   4.376558   3.725835   4.225380
    28  H    5.068987   4.739173   1.096634   2.142540   2.042693
    29  H    2.419767   3.227990   2.171180   1.091242   2.727496
    30  H    4.114209   4.426399   2.140502   1.092194   2.666935
    31  H    3.979858   4.798291   2.139787   1.093940   3.372028
    32  H    5.517058   3.807110   3.867367   4.576855   2.447780
    33  H    8.339865   6.108743   7.425354   8.454090   6.081805
    34  H    7.760014   5.637543   6.835314   8.056075   5.777223
                   16         17         18         19         20
    16  C    0.000000
    17  C    1.381797   0.000000
    18  Cl   2.712768   1.749931   0.000000
    19  C    2.418432   1.396903   2.723071   0.000000
    20  C    2.795202   2.406274   4.012990   1.385837   0.000000
    21  H    3.821255   4.566146   6.294048   4.324893   3.181036
    22  H    5.451909   6.714006   8.132597   7.095540   6.323235
    23  H    6.225494   7.508354   8.789314   8.005336   7.341856
    24  H    6.451578   7.516312   9.125056   7.535534   6.472802
    25  H    4.946300   5.885212   7.416244   5.933541   5.039219
    26  H    6.345905   7.364861   8.752967   7.555287   6.760606
    27  H    5.648610   6.650633   7.453149   7.355560   7.176638
    28  H    4.539823   5.884317   6.944628   6.663762   6.320859
    29  H    5.213480   6.524885   7.431108   7.382862   7.130716
    30  H    5.133971   6.458919   7.127358   7.511296   7.455163
    31  H    6.145508   7.521740   8.463328   8.371023   8.032013
    32  H    1.085827   2.152369   2.866074   3.406715   3.881009
    33  H    3.397957   2.155824   2.859529   1.086094   2.149294
    34  H    3.880894   3.397965   4.877936   2.154943   1.085766
                   21         22         23         24         25
    21  H    0.000000
    22  H    3.537040   0.000000
    23  H    4.774683   2.606266   0.000000
    24  H    3.361440   2.513024   2.829591   0.000000
    25  H    2.741616   3.607470   3.069184   2.492870   0.000000
    26  H    4.463343   4.185833   2.468158   2.862986   1.782925
    27  H    6.035789   5.620939   3.729849   5.715774   3.988172
    28  H    4.476846   2.285554   3.601619   4.639765   4.802173
    29  H    5.422764   3.707656   2.387087   4.839428   4.104902
    30  H    6.053605   4.094254   3.739018   5.929929   5.450231
    31  H    5.950830   3.191636   2.519788   4.885214   5.031460
    32  H    4.529189   5.466257   6.082273   6.755491   5.314671
    33  H    5.286270   8.167150   9.066127   8.534208   6.892978
    34  H    3.535390   6.929906   7.988972   6.784611   5.462531
                   26         27         28         29         30
    26  H    0.000000
    27  H    3.436766   0.000000
    28  H    5.433027   5.428801   0.000000
    29  H    3.885101   2.661733   3.068297   0.000000
    30  H    5.542561   4.136326   2.448830   1.773966   0.000000
    31  H    4.800819   4.367205   2.479841   1.774693   1.769755
    32  H    6.502038   5.332688   4.154872   4.704620   4.378334
    33  H    8.506962   8.244308   7.721837   8.413171   8.522111
    34  H    7.201862   7.951672   7.181052   8.008221   8.428629
                   31         32         33         34
    31  H    0.000000
    32  H    5.613962   0.000000
    33  H    9.436065   4.298959   0.000000
    34  H    8.886124   4.966673   2.491192   0.000000
 Stoichiometry    C13H14ClNO5
 Framework group  C1[X(C13H14ClNO5)]
 Deg. of freedom    96
 Full point group                 C1      NOp   1
 Largest Abelian subgroup         C1      NOp   1
 Largest concise Abelian subgroup C1      NOp   1
                         Standard orientation:                         
 ---------------------------------------------------------------------
 Center     Atomic      Atomic             Coordinates (Angstroms)
 Number     Number       Type             X           Y           Z
 ---------------------------------------------------------------------
      1          8           0       -0.729831    2.792074    0.061845
      2          6           0       -1.607983    1.776882    0.036265
      3          6           0       -1.260466    0.482284   -0.396900
      4          6           0        0.109456    0.213153   -0.821073
      5          7           0        1.031135    1.106044   -0.897934
      6          6           0        2.276105    0.408742   -1.244040
      7          6           0        3.297477    0.488256   -0.080899
      8          8           0        4.086082    1.658854   -0.225421
      9          6           0        2.688045    0.508799    1.335472
     10          6           0        1.969573   -0.743877    1.764719
     11          8           0        2.819578   -1.740760    2.051803
     12          8           0        0.767732   -0.863524    1.857205
     13          6           0        1.763175   -0.974605   -1.718958
     14          6           0        2.546026   -2.216885   -1.368306
     15          8           0        0.428468   -1.050181   -1.148206
     16          6           0       -2.215900   -0.540497   -0.403121
     17          6           0       -3.503466   -0.268894    0.018505
     18         17           0       -4.703557   -1.542418    0.005322
     19          6           0       -3.863109    1.008356    0.455113
     20          6           0       -2.918466    2.022319    0.463786
     21          1           0        0.142790    2.463400   -0.279953
     22          1           0        2.762045    0.915240   -2.083659
     23          1           0        4.002148   -0.345640   -0.169253
     24          1           0        3.503742    2.439088   -0.228110
     25          1           0        1.983214    1.339595    1.413081
     26          1           0        3.519500    0.674029    2.025998
     27          1           0        2.306758   -2.526588    2.336918
     28          1           0        1.617217   -0.926799   -2.804783
     29          1           0        2.679826   -2.329271   -0.291144
     30          1           0        2.026681   -3.098597   -1.750080
     31          1           0        3.532107   -2.172497   -1.839878
     32          1           0       -1.935598   -1.534590   -0.738130
     33          1           0       -4.879652    1.203392    0.784055
     34          1           0       -3.177307    3.022139    0.798818
 ---------------------------------------------------------------------
 Rotational constants (GHZ):      0.5408289      0.1911490      0.1743687
 Standard basis: 6-311+G(2d,p) (5D, 7F)
 There are   632 symmetry adapted basis functions of A   symmetry.
 Integral buffers will be    131072 words long.
 Raffenetti 2 integral format.
 Two-electron integral symmetry is turned on.
   632 basis functions,   969 primitive gaussians,   672 cartesian basis functions
    78 alpha electrons       78 beta electrons
       nuclear repulsion energy      1763.3033207571 Hartrees.
 NAtoms=   34 NActive=   34 NUniq=   34 SFac= 1.00D+00 NAtFMM=   50 NAOKFM=F Big=F
 Using the following non-standard input for PCM:
 radii=bondi
 --- end of non-standard input.
 ------------------------------------------------------------------------------
 Polarizable Continuum Model (PCM)
 =================================
 Model                : PCM.
 Atomic radii         : Bondi.
 Polarization charges : Total charges.
 Charge compensation  : None.
 Solution method      : Matrix inversion.
 Cavity type          : Scaled VdW (van der Waals Surface) (Alpha=1.100).
 Cavity algorithm     : GePol (No added spheres)
                        Default sphere list used, NSphG=   34.
                        Lebedev-Laikov grids with approx.  5.0 points / Ang**2.
                        Smoothing algorithm: Karplus/York (Gamma=1.0000).
                        Polarization charges: spherical gaussians, with
                                              point-specific exponents (IZeta= 3).
                        Self-potential: point-specific (ISelfS= 7).
                        Self-field    : sphere-specific E.n sum rule (ISelfD= 2).
 Solvent              : Methanol, Eps=  32.613000 Eps(inf)=   1.765709
 ------------------------------------------------------------------------------
 One-electron integrals computed using PRISM.
 NBasis=   632 RedAO= T  NBF=   632
 NBsUse=   630 1.00D-06 NBFU=   630
 Initial guess read from the checkpoint file:  1b-conf-13.chk
 B after Tr=     0.000000    0.000000    0.000000
         Rot=    1.000000    0.000000    0.000000    0.000000 Ang=   0.00 deg.
 Initial guess orbital symmetries:
       Occupied  (A) (A) (A) (A) (A) (A) (A) (A) (A) (A) (A) (A)
                 (A) (A) (A) (A) (A) (A) (A) (A) (A) (A) (A) (A)
                 (A) (A) (A) (A) (A) (A) (A) (A) (A) (A) (A) (A)
                 (A) (A) (A) (A) (A) (A) (A) (A) (A) (A) (A) (A)
                 (A) (A) (A) (A) (A) (A) (A) (A) (A) (A) (A) (A)
                 (A) (A) (A) (A) (A) (A) (A) (A) (A) (A) (A) (A)
                 (A) (A) (A) (A) (A) (A)
       Virtual   (A) (A) (A) (A) (A) (A) (A) (A) (A) (A) (A) (A)
                 (A) (A) (A) (A) (A) (A) (A) (A) (A) (A) (A) (A)
                 (A) (A) (A) (A) (A) (A) (A) (A) (A) (A) (A) (A)
                 (A) (A) (A) (A) (A) (A) (A) (A) (A) (A) (A) (A)
                 (A) (A) (A) (A) (A) (A) (A) (A) (A) (A) (A) (A)
                 (A) (A) (A) (A) (A) (A) (A) (A) (A) (A) (A) (A)
                 (A) (A) (A) (A) (A) (A) (A) (A) (A) (A) (A) (A)
                 (A) (A) (A) (A) (A) (A) (A) (A) (A) (A) (A) (A)
                 (A) (A) (A) (A) (A) (A) (A) (A) (A) (A) (A) (A)
                 (A) (A) (A) (A) (A) (A) (A) (A) (A) (A) (A) (A)
                 (A) (A) (A) (A) (A) (A) (A) (A) (A) (A) (A) (A)
                 (A) (A) (A) (A) (A) (A) (A) (A) (A) (A) (A) (A)
                 (A) (A) (A) (A) (A) (A) (A) (A) (A) (A) (A) (A)
                 (A) (A) (A) (A) (A) (A) (A) (A) (A) (A) (A) (A)
                 (A) (A) (A) (A) (A) (A) (A) (A) (A) (A) (A) (A)
                 (A) (A) (A) (A) (A) (A) (A) (A) (A) (A) (A) (A)
                 (A) (A) (A) (A) (A) (A) (A) (A) (A) (A) (A) (A)
                 (A) (A) (A) (A) (A) (A) (A) (A) (A) (A) (A) (A)
                 (A) (A) (A) (A) (A) (A) (A) (A) (A) (A) (A) (A)
                 (A) (A) (A) (A) (A) (A) (A) (A) (A) (A) (A) (A)
                 (A) (A) (A) (A) (A) (A) (A) (A) (A) (A) (A) (A)
                 (A) (A) (A) (A) (A) (A) (A) (A) (A) (A) (A) (A)
                 (A) (A) (A) (A) (A) (A) (A) (A) (A) (A) (A) (A)
                 (A) (A) (A) (A) (A) (A) (A) (A) (A) (A) (A) (A)
                 (A) (A) (A) (A) (A) (A) (A) (A) (A) (A) (A) (A)
                 (A) (A) (A) (A) (A) (A) (A) (A) (A) (A) (A) (A)
                 (A) (A) (A) (A) (A) (A) (A) (A) (A) (A) (A) (A)
                 (A) (A) (A) (A) (A) (A) (A) (A) (A) (A) (A) (A)
                 (A) (A) (A) (A) (A) (A) (A) (A) (A) (A) (A) (A)
                 (A) (A) (A) (A) (A) (A) (A) (A) (A) (A) (A) (A)
                 (A) (A) (A) (A) (A) (A) (A) (A) (A) (A) (A) (A)
                 (A) (A) (A) (A) (A) (A) (A) (A) (A) (A) (A) (A)
                 (A) (A) (A) (A) (A) (A) (A) (A) (A) (A) (A) (A)
                 (A) (A) (A) (A) (A) (A) (A) (A) (A) (A) (A) (A)
                 (A) (A) (A) (A) (A) (A) (A) (A) (A) (A) (A) (A)
                 (A) (A) (A) (A) (A) (A) (A) (A) (A) (A) (A) (A)
                 (A) (A) (A) (A) (A) (A) (A) (A) (A) (A) (A) (A)
                 (A) (A) (A) (A) (A) (A) (A) (A) (A) (A) (A) (A)
                 (A) (A) (A) (A) (A) (A) (A) (A) (A) (A) (A) (A)
                 (A) (A) (A) (A) (A) (A) (A) (A) (A) (A) (A) (A)
                 (A) (A) (A) (A) (A) (A) (A) (A) (A) (A) (A) (A)
                 (A) (A) (A) (A) (A) (A) (A) (A) (A) (A) (A) (A)
                 (A) (A) (A) (A) (A) (A) (A) (A) (A) (A) (A) (A)
                 (A) (A) (A) (A) (A) (A) (A) (A) (A) (A) (A) (A)
                 (A) (A) (A) (A) (A) (A) (A) (A) (A) (A) (A) (A)
                 (A) (A) (A) (A) (A) (A) (A) (A) (A) (A) (A) (A)
 Requested convergence on RMS density matrix=1.00D-08 within 128 cycles.
 Requested convergence on MAX density matrix=1.00D-06.
 Requested convergence on             energy=1.00D-06.
 No special actions if energy rises.
 Error on total polarization charges =  0.04957
 SCF Done:  E(RB3LYP) =  -1395.24836633     A.U. after   13 cycles
             Convg  =    0.4819D-08             -V/T =  2.0034
 Range of M.O.s used for correlation:     1   630
 NBasis=   632 NAE=    78 NBE=    78 NFC=     0 NFV=     0
 NROrb=    630 NOA=    78 NOB=    78 NVA=   552 NVB=   552

 **** Warning!!: The largest alpha MO coefficient is  0.13369704D+03

 NEqPCM:  Using equilibrium solvation (IEInf=0, Eps=  32.6130, EpsInf=   1.7657)
          Differentiating once with respect to magnetic field using GIAOs.
          Electric field/nuclear overlap derivatives assumed to be zero.
 FoFCou: FMM=F IPFlag=           0 FMFlag=    10101102 FMFlg1=           0
         NFxFlg=    40000000 DoJE=F BraDBF=F KetDBF=T FulRan=T
         Omega=  0.000000  0.000000  1.000000  0.000000  0.000000 ICntrl=    6100 IOpCl=  0
         NMat0=    1 NMatS0=    1 NMatT0=    0 NMatD0=    1 NMtDS0=    0 NMtDT0=    0
         I1Cent=           7 NGrid=        2464.
 Symmetry not used in FoFCou.
          There are     3 degrees of freedom in the 1st order CPHF.  IDoFFX=0.
      3 vectors produced by pass  0 Test12= 1.44D-12 3.33D-08 XBig12= 4.39D+02 9.53D+00.
 AX will form     3 AO Fock derivatives at one time.
      3 vectors produced by pass  1 Test12= 1.44D-12 3.33D-08 XBig12= 8.13D-01 2.34D-01.
      3 vectors produced by pass  2 Test12= 1.44D-12 3.33D-08 XBig12= 3.07D-03 2.19D-02.
      3 vectors produced by pass  3 Test12= 1.44D-12 3.33D-08 XBig12= 1.02D-05 9.08D-04.
      3 vectors produced by pass  4 Test12= 1.44D-12 3.33D-08 XBig12= 4.60D-08 4.62D-05.
      3 vectors produced by pass  5 Test12= 1.44D-12 3.33D-08 XBig12= 2.18D-10 6.32D-06.
      3 vectors produced by pass  6 Test12= 1.44D-12 3.33D-08 XBig12= 1.15D-12 4.18D-07.
 Inverted reduced A of dimension    21 with in-core refinement.
 Calculating GIAO nuclear magnetic shielding tensors.
 SCF GIAO Magnetic shielding tensor (ppm):
  1  O    Isotropic =   186.4014   Anisotropy =   134.1616
   XX=   152.7471   YX=    28.2281   ZX=    44.2588
   XY=     5.3341   YY=   151.8057   ZY=   -35.1833
   XZ=    45.7124   YZ=   -25.1831   ZZ=   254.6513
   Eigenvalues:   115.0290   168.3326   275.8424
  2  C    Isotropic =    16.6928   Anisotropy =   151.2492
   XX=   -20.3585   YX=   -38.3042   ZX=    28.9395
   XY=   -36.3572   YY=   -31.5246   ZY=   -29.4125
   XZ=    28.3503   YZ=   -28.1714   ZZ=   101.9614
   Eigenvalues:   -63.7548    -3.6925   117.5256
  3  C    Isotropic =    65.4077   Anisotropy =   144.4477
   XX=    11.2685   YX=     3.6940   ZX=    42.3896
   XY=    -7.8193   YY=    42.4246   ZY=   -28.5575
   XZ=    39.9083   YZ=   -31.7824   ZZ=   142.5299
   Eigenvalues:    -1.6154    36.1323   161.7062
  4  C    Isotropic =     8.0122   Anisotropy =    89.3927
   XX=     0.0378   YX=    42.9119   ZX=    28.5929
   XY=    48.7695   YY=   -27.9565   ZY=   -31.3541
   XZ=    29.4924   YZ=   -36.6379   ZZ=    51.9553
   Eigenvalues:   -77.2926    33.7219    67.6073
  5  N    Isotropic =    26.2826   Anisotropy =   247.1813
   XX=   -80.9908   YX=    53.9238   ZX=    72.8455
   XY=    38.2292   YY=    -1.7049   ZY=   -36.9897
   XZ=    94.0911   YZ=   -45.1282   ZZ=   161.5435
   Eigenvalues:  -131.6282    19.4059   191.0702
  6  C    Isotropic =   103.3451   Anisotropy =    24.0007
   XX=   117.6104   YX=     6.4282   ZX=     2.5645
   XY=   -13.1558   YY=   104.7754   ZY=     3.1991
   XZ=    11.0025   YZ=    10.1934   ZZ=    87.6494
   Eigenvalues:    83.6782   107.0114   119.3456
  7  C    Isotropic =   106.5906   Anisotropy =    48.1254
   XX=   105.4087   YX=    27.1412   ZX=     0.1135
   XY=    28.0759   YY=   115.2238   ZY=    -2.9873
   XZ=    -1.0280   YZ=    -5.4654   ZZ=    99.1392
   Eigenvalues:    81.9457    99.1519   138.6741
  8  O    Isotropic =   250.5174   Anisotropy =    49.7514
   XX=   242.1377   YX=    23.4578   ZX=    -2.1572
   XY=    39.3887   YY=   248.0963   ZY=   -14.0709
   XZ=     3.5868   YZ=   -19.5243   ZZ=   261.3184
   Eigenvalues:   210.6658   257.2015   283.6851
  9  C    Isotropic =   139.7318   Anisotropy =    40.8587
   XX=   127.0968   YX=    23.5755   ZX=   -10.8050
   XY=    11.7677   YY=   155.0154   ZY=    -0.7037
   XZ=   -11.1643   YZ=   -10.6093   ZZ=   137.0833
   Eigenvalues:   115.6916   136.5329   166.9710
 10  C    Isotropic =     3.1255   Anisotropy =   109.6645
   XX=    18.1707   YX=    45.8893   ZX=   -12.1717
   XY=    15.8156   YY=   -70.0223   ZY=    48.0516
   XZ=    -0.1679   YZ=    44.8474   ZZ=    61.2280
   Eigenvalues:   -93.5555    26.6968    76.2352
 11  O    Isotropic =   107.1676   Anisotropy =   183.5821
   XX=    26.4500   YX=  -174.6967   ZX=    68.1338
   XY=   -65.0781   YY=   150.9269   ZY=     0.7922
   XZ=    36.0829   YZ=    13.1178   ZZ=   144.1257
   Eigenvalues:   -57.9523   149.8994   229.5556
 12  O    Isotropic =   -82.3063   Anisotropy =   496.2559
   XX=  -275.0835   YX=    39.7921   ZX=     8.8451
   XY=    70.7754   YY=  -172.5117   ZY=   135.8921
   XZ=    14.7324   YZ=   142.7542   ZZ=   200.6763
   Eigenvalues:  -304.3453  -191.1046   248.5309
 13  C    Isotropic =   100.2962   Anisotropy =    72.4813
   XX=   136.7244   YX=     7.9266   ZX=   -27.1883
   XY=     5.3335   YY=    89.9423   ZY=    -4.2489
   XZ=   -30.5843   YZ=     5.9472   ZZ=    74.2220
   Eigenvalues:    62.5358    89.7358   148.6171
 14  C    Isotropic =   167.8515   Anisotropy =    17.0750
   XX=   165.4278   YX=    -6.2361   ZX=    -1.1837
   XY=   -11.9800   YY=   172.1584   ZY=    -5.2093
   XZ=     0.2910   YZ=    -2.9043   ZZ=   165.9682
   Eigenvalues:   158.1085   166.2111   179.2348
 15  O    Isotropic =   122.3479   Anisotropy =   138.0507
   XX=    41.2359   YX=   -76.4801   ZX=    37.6083
   XY=   -28.5517   YY=   198.4262   ZY=    26.8628
   XZ=    -1.3315   YZ=   -18.8982   ZZ=   127.3815
   Eigenvalues:    22.0509   130.6110   214.3817
 16  C    Isotropic =    48.9049   Anisotropy =   156.5309
   XX=    42.8873   YX=     7.0656   ZX=    32.6784
   XY=     1.6760   YY=   -27.9612   ZY=   -47.6648
   XZ=    30.2202   YZ=   -50.0046   ZZ=   131.7885
   Eigenvalues:   -43.6804    37.1362   153.2588
 17  C    Isotropic =    48.1520   Anisotropy =    99.1710
   XX=    25.3997   YX=   -59.7231   ZX=     8.6254
   XY=   -59.1551   YY=    10.3590   ZY=   -11.4920
   XZ=     9.0397   YZ=   -11.3868   ZZ=   108.6972
   Eigenvalues:   -42.0840    72.2739   114.2659
 18  Cl   Isotropic =   710.5411   Anisotropy =   496.3867
   XX=   769.5370   YX=   252.0443   ZX=    10.0620
   XY=   251.4118   YY=   808.3634   ZY=    -0.7409
   XZ=     7.6984   YZ=    -3.6917   ZZ=   553.7229
   Eigenvalues:   533.3155   556.8423  1041.4656
 19  C    Isotropic =    42.9233   Anisotropy =   162.3885
   XX=   -33.7537   YX=     9.5425   ZX=    53.3947
   XY=     9.8399   YY=    35.4823   ZY=   -33.4367
   XZ=    55.0706   YZ=   -33.8547   ZZ=   127.0412
   Eigenvalues:   -54.5928    32.1804   151.1823
 20  C    Isotropic =    59.6809   Anisotropy =   146.9244
   XX=    50.5992   YX=     6.3255   ZX=    31.6899
   XY=     9.3876   YY=    -7.8732   ZY=   -46.6003
   XZ=    32.4210   YZ=   -46.0111   ZZ=   136.3167
   Eigenvalues:   -25.3140    46.7262   157.6305
 21  H    Isotropic =    19.6058   Anisotropy =    25.3864
   XX=    28.7745   YX=    -8.9778   ZX=    -8.1189
   XY=    -6.1194   YY=    21.2897   ZY=     4.8762
   XZ=    -7.6614   YZ=     4.7356   ZZ=     8.7531
   Eigenvalues:     5.6801    16.6072    36.5300
 22  H    Isotropic =    27.1715   Anisotropy =     4.4324
   XX=    26.7987   YX=     2.4411   ZX=    -0.7266
   XY=     1.7449   YY=    26.3441   ZY=    -0.4736
   XZ=    -2.0760   YZ=    -1.1531   ZZ=    28.3716
   Eigenvalues:    24.4334    26.9546    30.1264
 23  H    Isotropic =    27.3879   Anisotropy =     4.2715
   XX=    27.9992   YX=     0.8160   ZX=     0.4324
   XY=    -0.3613   YY=    30.0773   ZY=     1.2166
   XZ=     0.1526   YZ=     0.5413   ZZ=    24.0873
   Eigenvalues:    23.9446    27.9836    30.2356
 24  H    Isotropic =    29.5736   Anisotropy =    13.3995
   XX=    29.3606   YX=    -2.2698   ZX=    -0.4130
   XY=    -2.8993   YY=    37.7423   ZY=    -0.8978
   XZ=     0.7936   YZ=    -0.5084   ZZ=    21.6179
   Eigenvalues:    21.5864    28.6277    38.5065
 25  H    Isotropic =    29.2373   Anisotropy =     2.5888
   XX=    29.9303   YX=     0.2390   ZX=     0.2642
   XY=    -2.8975   YY=    29.2501   ZY=     0.6630
   XZ=     1.6309   YZ=     1.9022   ZZ=    28.5316
   Eigenvalues:    26.7728    29.9759    30.9632
 26  H    Isotropic =    28.9704   Anisotropy =     6.1762
   XX=    28.6097   YX=     0.6631   ZX=     2.8165
   XY=     2.7253   YY=    27.9528   ZY=     0.1575
   XZ=     3.7041   YZ=    -0.0609   ZZ=    30.3488
   Eigenvalues:    25.3887    28.4347    33.0879
 27  H    Isotropic =    24.9398   Anisotropy =    11.2859
   XX=    20.1116   YX=    -1.1879   ZX=     0.6037
   XY=     3.1471   YY=    30.3656   ZY=    -4.2003
   XZ=    -0.0482   YZ=    -3.9423   ZZ=    24.3422
   Eigenvalues:    19.8706    22.4851    32.4637
 28  H    Isotropic =    26.8010   Anisotropy =     6.5434
   XX=    25.3889   YX=     0.3586   ZX=    -0.7163
   XY=    -0.0933   YY=    24.1125   ZY=    -0.1280
   XZ=    -1.4145   YZ=     1.5308   ZZ=    30.9017
   Eigenvalues:    23.9941    25.2457    31.1633
 29  H    Isotropic =    30.5143   Anisotropy =     7.7559
   XX=    26.1395   YX=    -0.7678   ZX=     1.9187
   XY=    -1.4031   YY=    30.0756   ZY=    -0.3639
   XZ=     1.6012   YZ=    -0.0814   ZZ=    35.3279
   Eigenvalues:    25.5786    30.2795    35.6849
 30  H    Isotropic =    30.1389   Anisotropy =     9.8784
   XX=    28.1024   YX=     0.9795   ZX=     1.0244
   XY=     1.5024   YY=    35.1018   ZY=     3.7927
   XZ=     1.0002   YZ=     3.2820   ZZ=    27.2124
   Eigenvalues:    25.7412    27.9509    36.7245
 31  H    Isotropic =    30.3796   Anisotropy =     9.6683
   XX=    34.0353   YX=    -2.1099   ZX=    -3.5409
   XY=    -2.3762   YY=    28.9963   ZY=     2.0460
   XZ=    -3.8238   YZ=     1.6753   ZZ=    28.1073
   Eigenvalues:    26.1012    28.2125    36.8252
 32  H    Isotropic =    23.7789   Anisotropy =    12.4621
   XX=    31.2967   YX=     2.1284   ZX=    -2.2265
   XY=     2.5672   YY=    21.0786   ZY=     0.3464
   XZ=    -1.8590   YZ=     0.5428   ZZ=    18.9613
   Eigenvalues:    18.3504    20.8992    32.0869
 33  H    Isotropic =    24.0437   Anisotropy =     7.1756
   XX=    23.3634   YX=     1.4486   ZX=    -0.3793
   XY=     0.8154   YY=    28.2406   ZY=     1.9152
   XZ=    -0.4325   YZ=     1.6670   ZZ=    20.5271
   Eigenvalues:    20.0048    23.2989    28.8275
 34  H    Isotropic =    24.5093   Anisotropy =     5.5730
   XX=    27.7295   YX=     0.5413   ZX=    -1.5262
   XY=     1.4154   YY=    24.4303   ZY=     0.3690
   XZ=    -1.3009   YZ=     0.6346   ZZ=    21.3681
   Eigenvalues:    20.9266    24.3767    28.2246
 End of Minotr Frequency-dependent properties file   721 does not exist.
 End of Minotr Frequency-dependent properties file   722 does not exist.

 **********************************************************************

            Population analysis using the SCF density.

 **********************************************************************

 Orbital symmetries:
       Occupied  (A) (A) (A) (A) (A) (A) (A) (A) (A) (A) (A) (A)
                 (A) (A) (A) (A) (A) (A) (A) (A) (A) (A) (A) (A)
                 (A) (A) (A) (A) (A) (A) (A) (A) (A) (A) (A) (A)
                 (A) (A) (A) (A) (A) (A) (A) (A) (A) (A) (A) (A)
                 (A) (A) (A) (A) (A) (A) (A) (A) (A) (A) (A) (A)
                 (A) (A) (A) (A) (A) (A) (A) (A) (A) (A) (A) (A)
                 (A) (A) (A) (A) (A) (A)
       Virtual   (A) (A) (A) (A) (A) (A) (A) (A) (A) (A) (A) (A)
                 (A) (A) (A) (A) (A) (A) (A) (A) (A) (A) (A) (A)
                 (A) (A) (A) (A) (A) (A) (A) (A) (A) (A) (A) (A)
                 (A) (A) (A) (A) (A) (A) (A) (A) (A) (A) (A) (A)
                 (A) (A) (A) (A) (A) (A) (A) (A) (A) (A) (A) (A)
                 (A) (A) (A) (A) (A) (A) (A) (A) (A) (A) (A) (A)
                 (A) (A) (A) (A) (A) (A) (A) (A) (A) (A) (A) (A)
                 (A) (A) (A) (A) (A) (A) (A) (A) (A) (A) (A) (A)
                 (A) (A) (A) (A) (A) (A) (A) (A) (A) (A) (A) (A)
                 (A) (A) (A) (A) (A) (A) (A) (A) (A) (A) (A) (A)
                 (A) (A) (A) (A) (A) (A) (A) (A) (A) (A) (A) (A)
                 (A) (A) (A) (A) (A) (A) (A) (A) (A) (A) (A) (A)
                 (A) (A) (A) (A) (A) (A) (A) (A) (A) (A) (A) (A)
                 (A) (A) (A) (A) (A) (A) (A) (A) (A) (A) (A) (A)
                 (A) (A) (A) (A) (A) (A) (A) (A) (A) (A) (A) (A)
                 (A) (A) (A) (A) (A) (A) (A) (A) (A) (A) (A) (A)
                 (A) (A) (A) (A) (A) (A) (A) (A) (A) (A) (A) (A)
                 (A) (A) (A) (A) (A) (A) (A) (A) (A) (A) (A) (A)
                 (A) (A) (A) (A) (A) (A) (A) (A) (A) (A) (A) (A)
                 (A) (A) (A) (A) (A) (A) (A) (A) (A) (A) (A) (A)
                 (A) (A) (A) (A) (A) (A) (A) (A) (A) (A) (A) (A)
                 (A) (A) (A) (A) (A) (A) (A) (A) (A) (A) (A) (A)
                 (A) (A) (A) (A) (A) (A) (A) (A) (A) (A) (A) (A)
                 (A) (A) (A) (A) (A) (A) (A) (A) (A) (A) (A) (A)
                 (A) (A) (A) (A) (A) (A) (A) (A) (A) (A) (A) (A)
                 (A) (A) (A) (A) (A) (A) (A) (A) (A) (A) (A) (A)
                 (A) (A) (A) (A) (A) (A) (A) (A) (A) (A) (A) (A)
                 (A) (A) (A) (A) (A) (A) (A) (A) (A) (A) (A) (A)
                 (A) (A) (A) (A) (A) (A) (A) (A) (A) (A) (A) (A)
                 (A) (A) (A) (A) (A) (A) (A) (A) (A) (A) (A) (A)
                 (A) (A) (A) (A) (A) (A) (A) (A) (A) (A) (A) (A)
                 (A) (A) (A) (A) (A) (A) (A) (A) (A) (A) (A) (A)
                 (A) (A) (A) (A) (A) (A) (A) (A) (A) (A) (A) (A)
                 (A) (A) (A) (A) (A) (A) (A) (A) (A) (A) (A) (A)
                 (A) (A) (A) (A) (A) (A) (A) (A) (A) (A) (A) (A)
                 (A) (A) (A) (A) (A) (A) (A) (A) (A) (A) (A) (A)
                 (A) (A) (A) (A) (A) (A) (A) (A) (A) (A) (A) (A)
                 (A) (A) (A) (A) (A) (A) (A) (A) (A) (A) (A) (A)
                 (A) (A) (A) (A) (A) (A) (A) (A) (A) (A) (A) (A)
                 (A) (A) (A) (A) (A) (A) (A) (A) (A) (A) (A) (A)
                 (A) (A) (A) (A) (A) (A) (A) (A) (A) (A) (A) (A)
                 (A) (A) (A) (A) (A) (A) (A) (A) (A) (A) (A) (A)
                 (A) (A) (A) (A) (A) (A) (A) (A) (A) (A) (A) (A)
                 (A) (A) (A) (A) (A) (A) (A) (A) (A) (A) (A) (A)
                 (A) (A) (A) (A) (A) (A) (A) (A) (A) (A) (A) (A)
                 (A) (A) (A) (A) (A) (A) (A) (A) (A) (A) (A) (A)
 The electronic state is 1-A.
 Alpha  occ. eigenvalues -- -101.55897 -19.18191 -19.17368 -19.15352 -19.13721
 Alpha  occ. eigenvalues --  -19.12783 -14.31394 -10.31911 -10.28379 -10.25434
 Alpha  occ. eigenvalues --  -10.24110 -10.24012 -10.23690 -10.21511 -10.20219
 Alpha  occ. eigenvalues --  -10.19684 -10.19591 -10.18591 -10.18476 -10.16555
 Alpha  occ. eigenvalues --   -9.47348  -7.23782  -7.22843  -7.22818  -1.12374
 Alpha  occ. eigenvalues --   -1.11305  -1.07238  -1.04133  -1.03397  -0.92635
 Alpha  occ. eigenvalues --   -0.90111  -0.84988  -0.81822  -0.78651  -0.77065
 Alpha  occ. eigenvalues --   -0.73999  -0.71589  -0.67901  -0.64429  -0.63370
 Alpha  occ. eigenvalues --   -0.61466  -0.60344  -0.58910  -0.54895  -0.53317
 Alpha  occ. eigenvalues --   -0.53086  -0.51183  -0.50553  -0.49912  -0.48281
 Alpha  occ. eigenvalues --   -0.47762  -0.46877  -0.46133  -0.46003  -0.44698
 Alpha  occ. eigenvalues --   -0.43663  -0.43081  -0.42052  -0.41762  -0.40910
 Alpha  occ. eigenvalues --   -0.39761  -0.39517  -0.39380  -0.38789  -0.38322
 Alpha  occ. eigenvalues --   -0.37128  -0.36771  -0.36025  -0.34568  -0.33856
 Alpha  occ. eigenvalues --   -0.32342  -0.32323  -0.31361  -0.30056  -0.28886
 Alpha  occ. eigenvalues --   -0.28215  -0.26207  -0.23344
 Alpha virt. eigenvalues --   -0.05968  -0.02172  -0.01677   0.00016   0.00904
 Alpha virt. eigenvalues --    0.01241   0.01373   0.01658   0.02510   0.03348
 Alpha virt. eigenvalues --    0.03459   0.04197   0.04442   0.04672   0.05162
 Alpha virt. eigenvalues --    0.05659   0.06276   0.06666   0.07129   0.07542
 Alpha virt. eigenvalues --    0.08019   0.08379   0.08774   0.09214   0.09678
 Alpha virt. eigenvalues --    0.10114   0.10270   0.10658   0.11385   0.11794
 Alpha virt. eigenvalues --    0.12066   0.12730   0.12788   0.13100   0.13482
 Alpha virt. eigenvalues --    0.13994   0.14255   0.14320   0.14690   0.14955
 Alpha virt. eigenvalues --    0.15394   0.15659   0.15967   0.16242   0.16897
 Alpha virt. eigenvalues --    0.17185   0.17677   0.17945   0.18245   0.18451
 Alpha virt. eigenvalues --    0.18636   0.19117   0.19444   0.19790   0.20016
 Alpha virt. eigenvalues --    0.20397   0.20626   0.20746   0.20840   0.21717
 Alpha virt. eigenvalues --    0.21818   0.21899   0.22459   0.22626   0.22906
 Alpha virt. eigenvalues --    0.23280   0.23995   0.24120   0.24517   0.24726
 Alpha virt. eigenvalues --    0.25313   0.25501   0.26239   0.26464   0.26863
 Alpha virt. eigenvalues --    0.27115   0.27629   0.27732   0.28079   0.28151
 Alpha virt. eigenvalues --    0.28755   0.29276   0.29434   0.29791   0.30404
 Alpha virt. eigenvalues --    0.31087   0.31343   0.31786   0.32412   0.32809
 Alpha virt. eigenvalues --    0.33123   0.33380   0.33835   0.34228   0.34366
 Alpha virt. eigenvalues --    0.34833   0.34912   0.35312   0.35853   0.36268
 Alpha virt. eigenvalues --    0.36627   0.37459   0.38550   0.38844   0.39072
 Alpha virt. eigenvalues --    0.39519   0.40191   0.41609   0.42148   0.42929
 Alpha virt. eigenvalues --    0.43441   0.43833   0.44338   0.44674   0.45231
 Alpha virt. eigenvalues --    0.45628   0.45984   0.46559   0.46625   0.47200
 Alpha virt. eigenvalues --    0.47970   0.48664   0.49660   0.50205   0.51079
 Alpha virt. eigenvalues --    0.52088   0.52578   0.52987   0.53476   0.53790
 Alpha virt. eigenvalues --    0.54531   0.55120   0.55569   0.55935   0.56347
 Alpha virt. eigenvalues --    0.56424   0.57448   0.58053   0.58207   0.59106
 Alpha virt. eigenvalues --    0.60099   0.60675   0.61394   0.62102   0.62407
 Alpha virt. eigenvalues --    0.63157   0.63695   0.64154   0.64781   0.65561
 Alpha virt. eigenvalues --    0.65949   0.66206   0.66571   0.68194   0.68241
 Alpha virt. eigenvalues --    0.68525   0.69016   0.69763   0.70117   0.70677
 Alpha virt. eigenvalues --    0.71704   0.71995   0.72832   0.72907   0.73591
 Alpha virt. eigenvalues --    0.74572   0.74717   0.75246   0.75762   0.76438
 Alpha virt. eigenvalues --    0.77164   0.78111   0.78312   0.78914   0.79888
 Alpha virt. eigenvalues --    0.80482   0.81154   0.81280   0.81627   0.82094
 Alpha virt. eigenvalues --    0.83720   0.84148   0.84608   0.85264   0.86347
 Alpha virt. eigenvalues --    0.86875   0.88212   0.89532   0.89691   0.90674
 Alpha virt. eigenvalues --    0.91553   0.93084   0.93520   0.94726   0.94973
 Alpha virt. eigenvalues --    0.95413   0.96599   0.97191   0.98226   0.99051
 Alpha virt. eigenvalues --    0.99690   1.01007   1.02009   1.03469   1.04323
 Alpha virt. eigenvalues --    1.05209   1.05437   1.06148   1.06984   1.08391
 Alpha virt. eigenvalues --    1.09068   1.09839   1.10616   1.11722   1.11826
 Alpha virt. eigenvalues --    1.12505   1.13038   1.14508   1.14939   1.15102
 Alpha virt. eigenvalues --    1.15798   1.15935   1.17596   1.18720   1.19105
 Alpha virt. eigenvalues --    1.19399   1.19922   1.20501   1.21045   1.22401
 Alpha virt. eigenvalues --    1.22588   1.23017   1.24579   1.25485   1.26166
 Alpha virt. eigenvalues --    1.26656   1.26984   1.27706   1.28815   1.30586
 Alpha virt. eigenvalues --    1.31251   1.32195   1.32715   1.33213   1.34538
 Alpha virt. eigenvalues --    1.34792   1.36159   1.36803   1.37013   1.37521
 Alpha virt. eigenvalues --    1.38853   1.39459   1.40081   1.40855   1.42193
 Alpha virt. eigenvalues --    1.43109   1.43794   1.45028   1.45078   1.46919
 Alpha virt. eigenvalues --    1.47886   1.49276   1.50939   1.51707   1.52843
 Alpha virt. eigenvalues --    1.53282   1.53571   1.55754   1.57021   1.57881
 Alpha virt. eigenvalues --    1.58996   1.59813   1.61375   1.62395   1.63267
 Alpha virt. eigenvalues --    1.65172   1.66549   1.66996   1.67820   1.69479
 Alpha virt. eigenvalues --    1.70159   1.71814   1.73122   1.74084   1.74287
 Alpha virt. eigenvalues --    1.75698   1.77635   1.78701   1.79654   1.81072
 Alpha virt. eigenvalues --    1.82600   1.84066   1.84682   1.86845   1.87756
 Alpha virt. eigenvalues --    1.89966   1.90645   1.91883   1.92768   1.94123
 Alpha virt. eigenvalues --    1.94249   1.97649   1.98061   1.98969   2.00294
 Alpha virt. eigenvalues --    2.03719   2.04900   2.06284   2.07163   2.08224
 Alpha virt. eigenvalues --    2.10509   2.11407   2.12362   2.13883   2.15965
 Alpha virt. eigenvalues --    2.17163   2.19015   2.19411   2.20647   2.21811
 Alpha virt. eigenvalues --    2.23413   2.25410   2.25856   2.28622   2.28861
 Alpha virt. eigenvalues --    2.29689   2.31102   2.32041   2.34895   2.35140
 Alpha virt. eigenvalues --    2.36425   2.36520   2.38982   2.39895   2.40170
 Alpha virt. eigenvalues --    2.41313   2.42529   2.43485   2.43819   2.45913
 Alpha virt. eigenvalues --    2.47146   2.49311   2.50163   2.50663   2.51302
 Alpha virt. eigenvalues --    2.52453   2.55366   2.57374   2.59415   2.60767
 Alpha virt. eigenvalues --    2.61773   2.63575   2.64449   2.65190   2.65721
 Alpha virt. eigenvalues --    2.65783   2.68328   2.69159   2.69803   2.71436
 Alpha virt. eigenvalues --    2.74538   2.75587   2.78721   2.79486   2.81412
 Alpha virt. eigenvalues --    2.83389   2.84369   2.85203   2.85305   2.87129
 Alpha virt. eigenvalues --    2.88090   2.88301   2.90632   2.91711   2.92846
 Alpha virt. eigenvalues --    2.94257   2.95224   2.97160   2.98822   3.01650
 Alpha virt. eigenvalues --    3.01732   3.03647   3.06558   3.08272   3.10041
 Alpha virt. eigenvalues --    3.10729   3.11388   3.11756   3.15660   3.18277
 Alpha virt. eigenvalues --    3.19425   3.21381   3.22617   3.23981   3.27240
 Alpha virt. eigenvalues --    3.28136   3.30041   3.31136   3.33020   3.35054
 Alpha virt. eigenvalues --    3.35462   3.35985   3.38127   3.38690   3.40051
 Alpha virt. eigenvalues --    3.40212   3.41383   3.42187   3.43950   3.44792
 Alpha virt. eigenvalues --    3.45868   3.46855   3.47236   3.49558   3.50458
 Alpha virt. eigenvalues --    3.50892   3.51571   3.52934   3.53446   3.54791
 Alpha virt. eigenvalues --    3.56628   3.57315   3.57745   3.58483   3.59072
 Alpha virt. eigenvalues --    3.59388   3.61197   3.61858   3.62527   3.63585
 Alpha virt. eigenvalues --    3.64113   3.66106   3.66406   3.66966   3.68373
 Alpha virt. eigenvalues --    3.69956   3.71355   3.72976   3.73484   3.74057
 Alpha virt. eigenvalues --    3.75117   3.75424   3.77197   3.78256   3.79710
 Alpha virt. eigenvalues --    3.81437   3.82319   3.83150   3.83974   3.85700
 Alpha virt. eigenvalues --    3.88948   3.89562   3.90462   3.91716   3.94768
 Alpha virt. eigenvalues --    3.96219   3.97867   4.00072   4.03219   4.04487
 Alpha virt. eigenvalues --    4.07667   4.11182   4.12359   4.16678   4.18982
 Alpha virt. eigenvalues --    4.20899   4.23666   4.25264   4.27499   4.29758
 Alpha virt. eigenvalues --    4.35994   4.36622   4.40954   4.43096   4.46391
 Alpha virt. eigenvalues --    4.55419   4.57694   4.59336   4.74718   4.76440
 Alpha virt. eigenvalues --    4.88797   5.04164   5.04564   5.08061   5.09764
 Alpha virt. eigenvalues --    5.13485   5.16759   5.17616   5.21924   5.25319
 Alpha virt. eigenvalues --    5.27624   5.37770   5.44017   5.45522   5.48342
 Alpha virt. eigenvalues --    5.58103   5.61076   5.65228   5.78687   5.81732
 Alpha virt. eigenvalues --    5.94512   6.10246   6.13207   6.78678   6.83725
 Alpha virt. eigenvalues --    6.86054   6.87024   6.90351   6.96650   6.97997
 Alpha virt. eigenvalues --    6.99652   7.00838   7.01474   7.06439   7.07339
 Alpha virt. eigenvalues --    7.07852   7.10157   7.15435   7.16735   7.19351
 Alpha virt. eigenvalues --    7.24774   7.30952   7.32319   7.36400   7.37552
 Alpha virt. eigenvalues --    7.38537   7.42406   7.53841   9.89951  23.67770
 Alpha virt. eigenvalues --   23.91091  23.92842  23.96919  23.98908  24.00608
 Alpha virt. eigenvalues --   24.01049  24.04918  24.07604  24.08887  24.14478
 Alpha virt. eigenvalues --   24.18927  24.33066  25.87694  26.28528  27.40898
 Alpha virt. eigenvalues --   35.78451  49.96006  49.99094  50.03728  50.05054
 Alpha virt. eigenvalues --   50.09232 215.90180
          Condensed to atoms (all electrons):
              1          2          3          4          5          6
     1  O    8.358105   0.378743   0.018371  -0.058558   0.028144   0.006415
     2  C    0.378743  10.010687   0.015208  -0.699480   0.064826   0.305939
     3  C    0.018371   0.015208   8.224683   0.469745  -0.046611  -0.214430
     4  C   -0.058558  -0.699480   0.469745   7.572744  -0.062748   0.623379
     5  N    0.028144   0.064826  -0.046611  -0.062748   7.479698  -0.356554
     6  C    0.006415   0.305939  -0.214430   0.623379  -0.356554  10.054635
     7  C   -0.001946   0.030103   0.088988   0.108480  -0.134311  -1.368147
     8  O    0.000671   0.002091  -0.002833  -0.015967   0.036820  -0.005971
     9  C   -0.008899   0.021573  -0.029810  -0.151395  -0.159500   0.896659
    10  C    0.011890  -0.097704   0.009120  -0.005430   0.046394  -0.409137
    11  O   -0.000068  -0.000876  -0.003346  -0.007012   0.002270   0.037224
    12  O   -0.002010  -0.028704   0.012009  -0.040291  -0.018020   0.014206
    13  C   -0.006886  -0.308098  -0.048694  -1.546852   0.738300  -3.643097
    14  C   -0.000274   0.000759  -0.026208  -0.421803   0.108131  -0.191799
    15  O   -0.001384  -0.012240   0.031453   0.394000  -0.111601  -0.011577
    16  C    0.060642  -0.160709   0.882155  -0.858120  -0.109507  -0.483806
    17  C   -0.039646  -1.230074  -1.092968   0.372149  -0.063916  -0.000943
    18  Cl  -0.000091   0.079411   0.104261  -0.051408   0.000116  -0.003594
    19  C    0.033211  -0.164994  -1.344612  -0.437590   0.006547   0.017125
    20  C   -0.383649  -2.043759  -1.069557   0.268670   0.045355   0.084316
    21  H    0.229407  -0.003626  -0.039186  -0.019949   0.043730   0.022944
    22  H    0.000630   0.006207   0.001464   0.000771  -0.054470   0.506769
    23  H    0.000006   0.002429   0.000917   0.001973   0.012649  -0.089383
    24  H    0.000072  -0.008499   0.009010  -0.006225   0.015183  -0.092541
    25  H   -0.000446   0.017797  -0.010463   0.006107   0.005336  -0.010836
    26  H    0.000037  -0.000684   0.001167   0.003107   0.001008   0.002188
    27  H    0.000002  -0.000078  -0.000280  -0.004100   0.000863  -0.000099
    28  H    0.000066  -0.006552   0.000003  -0.007534  -0.010108  -0.031789
    29  H    0.000012   0.000136  -0.000578   0.013713  -0.003908   0.033331
    30  H    0.000001  -0.000013   0.003887  -0.018215   0.001142  -0.023435
    31  H    0.000001  -0.000246   0.000169  -0.006763  -0.001188   0.011769
    32  H   -0.000499   0.022908  -0.005509  -0.002810  -0.001183   0.007866
    33  H   -0.000691   0.029887  -0.011334  -0.000535  -0.000002   0.000058
    34  H    0.001938  -0.196528  -0.006264   0.008483  -0.000036   0.000034
              7          8          9         10         11         12
     1  O   -0.001946   0.000671  -0.008899   0.011890  -0.000068  -0.002010
     2  C    0.030103   0.002091   0.021573  -0.097704  -0.000876  -0.028704
     3  C    0.088988  -0.002833  -0.029810   0.009120  -0.003346   0.012009
     4  C    0.108480  -0.015967  -0.151395  -0.005430  -0.007012  -0.040291
     5  N   -0.134311   0.036820  -0.159500   0.046394   0.002270  -0.018020
     6  C   -1.368147  -0.005971   0.896659  -0.409137   0.037224   0.014206
     7  C    8.165376   0.084606  -1.019089   0.045902  -0.073531   0.046649
     8  O    0.084606   8.191759  -0.065466   0.010876  -0.002121  -0.000623
     9  C   -1.019089  -0.065466   6.701139  -0.195347  -0.041957  -0.054526
    10  C    0.045902   0.010876  -0.195347   5.164270   0.408601   0.399682
    11  O   -0.073531  -0.002121  -0.041957   0.408601   7.900811  -0.111003
    12  O    0.046649  -0.000623  -0.054526   0.399682  -0.111003   8.209098
    13  C   -0.056556   0.036857  -0.400550   0.355159  -0.004532   0.026688
    14  C   -0.430962   0.016829   0.107032  -0.046672  -0.004533  -0.010227
    15  O    0.053709  -0.000562  -0.014082   0.043854   0.000475  -0.009569
    16  C   -0.094178   0.000238  -0.062451   0.056478   0.001814   0.025378
    17  C   -0.024488  -0.000160   0.007160  -0.000164   0.000526   0.007468
    18  Cl  -0.000411   0.000000   0.000017   0.000988   0.000019  -0.000239
    19  C   -0.000697   0.000055   0.006021  -0.018395  -0.000024   0.004854
    20  C    0.004966  -0.000253   0.022463  -0.024488  -0.000216   0.001470
    21  H   -0.011293  -0.000832   0.006051  -0.004040   0.000037   0.000217
    22  H   -0.072478  -0.004692  -0.013776   0.003626   0.000003  -0.000434
    23  H    0.538133  -0.052853  -0.065606  -0.014060   0.000064   0.000171
    24  H    0.103458   0.250757  -0.018694   0.001032  -0.000056  -0.000031
    25  H   -0.044134  -0.005183   0.471820  -0.063769   0.003372  -0.007559
    26  H   -0.002643  -0.001150   0.373108  -0.045878  -0.004787   0.003338
    27  H    0.004644   0.000068  -0.020770  -0.014843   0.280983   0.026739
    28  H    0.028570  -0.001033   0.004230   0.001366   0.000037  -0.000164
    29  H   -0.017302   0.000568   0.009023  -0.003649   0.007733  -0.001371
    30  H    0.011107  -0.000066  -0.002728   0.002594  -0.000161   0.000303
    31  H   -0.009764  -0.000042   0.001087   0.000938  -0.000291  -0.000124
    32  H    0.000728  -0.000001   0.000494  -0.000510   0.000013  -0.000070
    33  H    0.000000   0.000000   0.000005   0.000009   0.000000  -0.000001
    34  H    0.000052   0.000000  -0.000011  -0.000059   0.000000  -0.000013
             13         14         15         16         17         18
     1  O   -0.006886  -0.000274  -0.001384   0.060642  -0.039646  -0.000091
     2  C   -0.308098   0.000759  -0.012240  -0.160709  -1.230074   0.079411
     3  C   -0.048694  -0.026208   0.031453   0.882155  -1.092968   0.104261
     4  C   -1.546852  -0.421803   0.394000  -0.858120   0.372149  -0.051408
     5  N    0.738300   0.108131  -0.111601  -0.109507  -0.063916   0.000116
     6  C   -3.643097  -0.191799  -0.011577  -0.483806  -0.000943  -0.003594
     7  C   -0.056556  -0.430962   0.053709  -0.094178  -0.024488  -0.000411
     8  O    0.036857   0.016829  -0.000562   0.000238  -0.000160   0.000000
     9  C   -0.400550   0.107032  -0.014082  -0.062451   0.007160   0.000017
    10  C    0.355159  -0.046672   0.043854   0.056478  -0.000164   0.000988
    11  O   -0.004532  -0.004533   0.000475   0.001814   0.000526   0.000019
    12  O    0.026688  -0.010227  -0.009569   0.025378   0.007468  -0.000239
    13  C    9.532975   0.437935   0.038409   0.422853  -0.012617   0.006671
    14  C    0.437935   5.914186  -0.107170   0.013160  -0.005632   0.000656
    15  O    0.038409  -0.107170   8.261550  -0.119255   0.005188  -0.000126
    16  C    0.422853   0.013160  -0.119255   8.759583   0.517413   0.251178
    17  C   -0.012617  -0.005632   0.005188   0.517413   9.170959  -0.719262
    18  Cl   0.006671   0.000656  -0.000126   0.251178  -0.719262  17.092358
    19  C   -0.060958  -0.007815  -0.009111  -0.714994  -1.741561   0.317284
    20  C   -0.017873   0.004608   0.011572  -1.972935  -0.073727   0.021358
    21  H   -0.005028   0.000612   0.002222  -0.026684   0.010600   0.000017
    22  H   -0.064535   0.018826   0.004991  -0.002212  -0.000666   0.000001
    23  H   -0.003965  -0.003872  -0.002283  -0.001249  -0.000107   0.000000
    24  H    0.033544   0.000301  -0.000283   0.001362   0.000121   0.000000
    25  H   -0.005375  -0.000673  -0.001551  -0.004990  -0.001236   0.000001
    26  H    0.008306   0.000475   0.000098   0.001217   0.000071   0.000000
    27  H    0.003880   0.001011  -0.000501   0.000910   0.000070  -0.000013
    28  H    0.441339  -0.058197  -0.049526   0.008374   0.001255  -0.000001
    29  H   -0.067928   0.405495  -0.002526   0.001753   0.000094  -0.000002
    30  H    0.026391   0.382454  -0.002260  -0.002599  -0.001083  -0.000004
    31  H   -0.060910   0.435752   0.007967   0.000011   0.000046   0.000000
    32  H   -0.005149  -0.002016   0.007542   0.392267  -0.086683  -0.009777
    33  H   -0.000007   0.000002  -0.000009   0.020169  -0.065549  -0.004410
    34  H    0.000004   0.000001   0.000002  -0.025616   0.057016  -0.001023
             19         20         21         22         23         24
     1  O    0.033211  -0.383649   0.229407   0.000630   0.000006   0.000072
     2  C   -0.164994  -2.043759  -0.003626   0.006207   0.002429  -0.008499
     3  C   -1.344612  -1.069557  -0.039186   0.001464   0.000917   0.009010
     4  C   -0.437590   0.268670  -0.019949   0.000771   0.001973  -0.006225
     5  N    0.006547   0.045355   0.043730  -0.054470   0.012649   0.015183
     6  C    0.017125   0.084316   0.022944   0.506769  -0.089383  -0.092541
     7  C   -0.000697   0.004966  -0.011293  -0.072478   0.538133   0.103458
     8  O    0.000055  -0.000253  -0.000832  -0.004692  -0.052853   0.250757
     9  C    0.006021   0.022463   0.006051  -0.013776  -0.065606  -0.018694
    10  C   -0.018395  -0.024488  -0.004040   0.003626  -0.014060   0.001032
    11  O   -0.000024  -0.000216   0.000037   0.000003   0.000064  -0.000056
    12  O    0.004854   0.001470   0.000217  -0.000434   0.000171  -0.000031
    13  C   -0.060958  -0.017873  -0.005028  -0.064535  -0.003965   0.033544
    14  C   -0.007815   0.004608   0.000612   0.018826  -0.003872   0.000301
    15  O   -0.009111   0.011572   0.002222   0.004991  -0.002283  -0.000283
    16  C   -0.714994  -1.972935  -0.026684  -0.002212  -0.001249   0.001362
    17  C   -1.741561  -0.073727   0.010600  -0.000666  -0.000107   0.000121
    18  Cl   0.317284   0.021358   0.000017   0.000001   0.000000   0.000000
    19  C   10.441900  -0.004050  -0.010339   0.000044  -0.000010  -0.000060
    20  C   -0.004050  10.633805   0.083742   0.000504   0.000159  -0.001103
    21  H   -0.010339   0.083742   0.260716  -0.001010  -0.000007   0.000056
    22  H    0.000044   0.000504  -0.001010   0.554174  -0.001089  -0.000570
    23  H   -0.000010   0.000159  -0.000007  -0.001089   0.531233   0.005263
    24  H   -0.000060  -0.001103   0.000056  -0.000570   0.005263   0.404036
    25  H    0.000159   0.004346  -0.000310  -0.000244   0.005407   0.003039
    26  H    0.000024  -0.000232   0.000020  -0.000191  -0.007765  -0.001686
    27  H    0.000054   0.000009   0.000001   0.000003  -0.000062   0.000002
    28  H    0.000239  -0.001425  -0.000029  -0.012715  -0.000537  -0.000053
    29  H    0.000073  -0.000162  -0.000005  -0.000288  -0.001667  -0.000066
    30  H   -0.000039  -0.000035   0.000001  -0.000177   0.000231   0.000003
    31  H   -0.000008  -0.000008  -0.000002  -0.000376   0.000200  -0.000026
    32  H    0.015791   0.001321   0.000090  -0.000010  -0.000003   0.000000
    33  H    0.415311  -0.046311   0.000023   0.000000   0.000000   0.000000
    34  H   -0.096044   0.608476   0.000966   0.000000   0.000000   0.000000
             25         26         27         28         29         30
     1  O   -0.000446   0.000037   0.000002   0.000066   0.000012   0.000001
     2  C    0.017797  -0.000684  -0.000078  -0.006552   0.000136  -0.000013
     3  C   -0.010463   0.001167  -0.000280   0.000003  -0.000578   0.003887
     4  C    0.006107   0.003107  -0.004100  -0.007534   0.013713  -0.018215
     5  N    0.005336   0.001008   0.000863  -0.010108  -0.003908   0.001142
     6  C   -0.010836   0.002188  -0.000099  -0.031789   0.033331  -0.023435
     7  C   -0.044134  -0.002643   0.004644   0.028570  -0.017302   0.011107
     8  O   -0.005183  -0.001150   0.000068  -0.001033   0.000568  -0.000066
     9  C    0.471820   0.373108  -0.020770   0.004230   0.009023  -0.002728
    10  C   -0.063769  -0.045878  -0.014843   0.001366  -0.003649   0.002594
    11  O    0.003372  -0.004787   0.280983   0.000037   0.007733  -0.000161
    12  O   -0.007559   0.003338   0.026739  -0.000164  -0.001371   0.000303
    13  C   -0.005375   0.008306   0.003880   0.441339  -0.067928   0.026391
    14  C   -0.000673   0.000475   0.001011  -0.058197   0.405495   0.382454
    15  O   -0.001551   0.000098  -0.000501  -0.049526  -0.002526  -0.002260
    16  C   -0.004990   0.001217   0.000910   0.008374   0.001753  -0.002599
    17  C   -0.001236   0.000071   0.000070   0.001255   0.000094  -0.001083
    18  Cl   0.000001   0.000000  -0.000013  -0.000001  -0.000002  -0.000004
    19  C    0.000159   0.000024   0.000054   0.000239   0.000073  -0.000039
    20  C    0.004346  -0.000232   0.000009  -0.001425  -0.000162  -0.000035
    21  H   -0.000310   0.000020   0.000001  -0.000029  -0.000005   0.000001
    22  H   -0.000244  -0.000191   0.000003  -0.012715  -0.000288  -0.000177
    23  H    0.005407  -0.007765  -0.000062  -0.000537  -0.001667   0.000231
    24  H    0.003039  -0.001686   0.000002  -0.000053  -0.000066   0.000003
    25  H    0.492612  -0.030532  -0.000330  -0.000037  -0.000170   0.000017
    26  H   -0.030532   0.526049   0.001102   0.000001   0.000018  -0.000003
    27  H   -0.000330   0.001102   0.372113  -0.000018  -0.000433  -0.000006
    28  H   -0.000037   0.000001  -0.000018   0.571428   0.006298  -0.007408
    29  H   -0.000170   0.000018  -0.000433   0.006298   0.515683  -0.025014
    30  H    0.000017  -0.000003  -0.000006  -0.007408  -0.025014   0.525198
    31  H    0.000004  -0.000008  -0.000006  -0.003794  -0.026071  -0.024069
    32  H   -0.000003   0.000000   0.000003  -0.000007  -0.000001  -0.000004
    33  H    0.000000   0.000000   0.000000   0.000000   0.000000   0.000000
    34  H    0.000002   0.000000   0.000000   0.000000   0.000000   0.000000
             31         32         33         34
     1  O    0.000001  -0.000499  -0.000691   0.001938
     2  C   -0.000246   0.022908   0.029887  -0.196528
     3  C    0.000169  -0.005509  -0.011334  -0.006264
     4  C   -0.006763  -0.002810  -0.000535   0.008483
     5  N   -0.001188  -0.001183  -0.000002  -0.000036
     6  C    0.011769   0.007866   0.000058   0.000034
     7  C   -0.009764   0.000728   0.000000   0.000052
     8  O   -0.000042  -0.000001   0.000000   0.000000
     9  C    0.001087   0.000494   0.000005  -0.000011
    10  C    0.000938  -0.000510   0.000009  -0.000059
    11  O   -0.000291   0.000013   0.000000   0.000000
    12  O   -0.000124  -0.000070  -0.000001  -0.000013
    13  C   -0.060910  -0.005149  -0.000007   0.000004
    14  C    0.435752  -0.002016   0.000002   0.000001
    15  O    0.007967   0.007542  -0.000009   0.000002
    16  C    0.000011   0.392267   0.020169  -0.025616
    17  C    0.000046  -0.086683  -0.065549   0.057016
    18  Cl   0.000000  -0.009777  -0.004410  -0.001023
    19  C   -0.000008   0.015791   0.415311  -0.096044
    20  C   -0.000008   0.001321  -0.046311   0.608476
    21  H   -0.000002   0.000090   0.000023   0.000966
    22  H   -0.000376  -0.000010   0.000000   0.000000
    23  H    0.000200  -0.000003   0.000000   0.000000
    24  H   -0.000026   0.000000   0.000000   0.000000
    25  H    0.000004  -0.000003   0.000000   0.000002
    26  H   -0.000008   0.000000   0.000000   0.000000
    27  H   -0.000006   0.000003   0.000000   0.000000
    28  H   -0.003794  -0.000007   0.000000   0.000000
    29  H   -0.026071  -0.000001   0.000000   0.000000
    30  H   -0.024069  -0.000004   0.000000   0.000000
    31  H    0.510940  -0.000004   0.000000   0.000000
    32  H   -0.000004   0.500827  -0.000110   0.000047
    33  H    0.000000  -0.000110   0.518465  -0.004842
    34  H    0.000000   0.000047  -0.004842   0.519509
 Mulliken atomic charges:
              1
     1  O   -0.623316
     2  C   -0.025840
     3  C    0.080075
     4  C    0.579464
     5  N   -0.502849
     6  C    0.312280
     7  C    0.046459
     8  O   -0.472387
     9  C   -0.303224
    10  C    0.381366
    11  O   -0.389465
    12  O   -0.493288
    13  C    0.210300
    14  C   -0.530371
    15  O   -0.407416
    16  C   -0.777648
    17  C    1.010346
    18  Cl  -0.083978
    19  C   -0.647393
    20  C   -0.157359
    21  H    0.460890
    22  H    0.131922
    23  H    0.145682
    24  H    0.302654
    25  H    0.177823
    26  H    0.174224
    27  H    0.349081
    28  H    0.127720
    29  H    0.157210
    30  H    0.153988
    31  H    0.164817
    32  H    0.164454
    33  H    0.149872
    34  H    0.133906
 Sum of Mulliken atomic charges =   0.00000
 Mulliken charges with hydrogens summed into heavy atoms:
              1
     1  O   -0.162426
     2  C   -0.025840
     3  C    0.080075
     4  C    0.579464
     5  N   -0.502849
     6  C    0.444202
     7  C    0.192141
     8  O   -0.169733
     9  C    0.048824
    10  C    0.381366
    11  O   -0.040384
    12  O   -0.493288
    13  C    0.338021
    14  C   -0.054355
    15  O   -0.407416
    16  C   -0.613193
    17  C    1.010346
    18  Cl  -0.083978
    19  C   -0.497520
    20  C   -0.023454
 Sum of Mulliken charges with hydrogens summed into heavy atoms =   0.00000
 Electronic spatial extent (au):  <R**2>=           6387.0762
 Charge=              0.0000 electrons
 Dipole moment (field-independent basis, Debye):
    X=              4.1880    Y=             -1.7489    Z=             -1.3852  Tot=              4.7452
 Quadrupole moment (field-independent basis, Debye-Ang):
   XX=           -129.2619   YY=           -119.5449   ZZ=           -119.0206
   XY=            -13.3675   XZ=             -2.7027   YZ=              1.7114
 Traceless Quadrupole moment (field-independent basis, Debye-Ang):
   XX=             -6.6528   YY=              3.0643   ZZ=              3.5885
   XY=            -13.3675   XZ=             -2.7027   YZ=              1.7114
 Octapole moment (field-independent basis, Debye-Ang**2):
  XXX=            -18.7271  YYY=            -37.8291  ZZZ=              0.4728  XYY=             30.3794
  XXY=              4.1224  XXZ=             12.9982  XZZ=             34.2566  YZZ=            -15.7334
  YYZ=             17.0004  XYZ=             -6.3343
 Hexadecapole moment (field-independent basis, Debye-Ang**3):
 XXXX=          -6236.8470 YYYY=          -1533.3058 ZZZZ=           -928.8075 XXXY=           -286.7557
 XXXZ=            -64.2645 YYYX=              4.5212 YYYZ=            -53.2682 ZZZX=             19.8771
 ZZZY=            -30.4994 XXYY=          -1177.2696 XXZZ=          -1102.2514 YYZZ=           -385.2056
 XXYZ=             46.8289 YYXZ=             15.6519 ZZXY=            -24.5520
 N-N= 1.763303320757D+03 E-N=-6.806995356778D+03  KE= 1.390589870301D+03
 1\1\GINC-PROD2-0114\SP\RB3LYP\6-311+G(2d,p)\C13H14Cl1N1O5\YUHENG\26-Ma
 r-2019\0\\# b3lyp/6-311+G(2d,p) nmr guess=read geom=check integral(ult
 rafinegrid) scrf=(iefpcm,read,solvent=methanol)\\Candidate Structure: 
 1b, Conformer: 13, NMR calculation with methanol solvation\\0,1\O,0,-0
 .729830617,2.7920735953,0.0618447623\C,0,-1.6079827693,1.7768822091,0.
 0362653501\C,0,-1.2604655501,0.4822843129,-0.3969001255\C,0,0.10945616
 24,0.213152731,-0.8210730209\N,0,1.0311353597,1.1060436312,-0.89793428
 1\C,0,2.2761047723,0.4087417482,-1.2440395658\C,0,3.297477081,0.488255
 9478,-0.080899341\O,0,4.0860815878,1.6588542332,-0.2254212594\C,0,2.68
 80449332,0.5087987166,1.3354716809\C,0,1.9695733323,-0.7438766074,1.76
 47187126\O,0,2.819578099,-1.7407604499,2.0518025361\O,0,0.7677320722,-
 0.86352413,1.8572050239\C,0,1.7631745535,-0.9746046259,-1.7189580208\C
 ,0,2.5460264488,-2.2168852535,-1.368305623\O,0,0.4284683454,-1.0501805
 823,-1.1482058294\C,0,-2.2158998398,-0.5404972326,-0.4031211415\C,0,-3
 .5034657289,-0.2688935288,0.0185046171\Cl,0,-4.7035568347,-1.542418253
 1,0.0053224046\C,0,-3.863108819,1.0083564273,0.4551130841\C,0,-2.91846
 57016,2.0223186457,0.4637862599\H,0,0.1427901631,2.4634001894,-0.27995
 27647\H,0,2.7620446976,0.9152398557,-2.0836586141\H,0,4.0021476557,-0.
 3456399146,-0.1692532262\H,0,3.5037420296,2.4390884296,-0.2281100218\H
 ,0,1.9832135475,1.3395945349,1.4130807364\H,0,3.5194999648,0.674028877
 9,2.0259984003\H,0,2.30675765,-2.5265875202,2.336917746\H,0,1.61721711
 66,-0.9267986042,-2.8047832241\H,0,2.6798256141,-2.3292705576,-0.29114
 4212\H,0,2.0266806825,-3.0985968337,-1.7500802417\H,0,3.5321069035,-2.
 1724968322,-1.8398775169\H,0,-1.9355980756,-1.5345903367,-0.7381300543
 \H,0,-4.8796516143,1.2033918492,0.7840548956\H,0,-3.1773068105,3.02213
 94738,0.7988181213\\Version=EM64L-G09RevB.01\State=1-A\HF=-1395.248366
 3\RMSD=4.819e-09\Dipole=1.6476822,-0.6880655,-0.5449791\Quadrupole=-4.
 9461682,2.2782017,2.6679666,-9.9383941,-2.0094186,1.2723948\PG=C01 [X(
 C13H14Cl1N1O5)]\\@


 THE MOLECULE ALSO HAS A BODY.  WHEN THIS BODY IS HIT, THE MOLECULE
 FEELS HURT ALL OVER -- A. KITAIGORODSKI
 Job cpu time:  0 days  2 hours 48 minutes 48.9 seconds.
 File lengths (MBytes):  RWF=    328 Int=      0 D2E=      0 Chk=     29 Scr=      1
 Normal termination of Gaussian 09 at Tue Mar 26 02:56:11 2019.
