 Entering Gaussian System, Link 0=g09
 Initial command:
 /home/yuheng/proj/yuheng/g09/l1.exe /home/yuheng/proj/yuheng/g09_scratch/Gau-78330.inp -scrdir=/home/yuheng/proj/yuheng/g09_scratch/
 Entering Link 1 = /home/yuheng/proj/yuheng/g09/l1.exe PID=     78331.
  
 Copyright (c) 1988,1990,1992,1993,1995,1998,2003,2009,2010,
            Gaussian, Inc.  All Rights Reserved.
  
 This is part of the Gaussian(R) 09 program.  It is based on
 the Gaussian(R) 03 system (copyright 2003, Gaussian, Inc.),
 the Gaussian(R) 98 system (copyright 1998, Gaussian, Inc.),
 the Gaussian(R) 94 system (copyright 1995, Gaussian, Inc.),
 the Gaussian 92(TM) system (copyright 1992, Gaussian, Inc.),
 the Gaussian 90(TM) system (copyright 1990, Gaussian, Inc.),
 the Gaussian 88(TM) system (copyright 1988, Gaussian, Inc.),
 the Gaussian 86(TM) system (copyright 1986, Carnegie Mellon
 University), and the Gaussian 82(TM) system (copyright 1983,
 Carnegie Mellon University). Gaussian is a federally registered
 trademark of Gaussian, Inc.
  
 This software contains proprietary and confidential information,
 including trade secrets, belonging to Gaussian, Inc.
  
 This software is provided under written license and may be
 used, copied, transmitted, or stored only in accord with that
 written license.
  
 The following legend is applicable only to US Government
 contracts under FAR:
  
                    RESTRICTED RIGHTS LEGEND
  
 Use, reproduction and disclosure by the US Government is
 subject to restrictions as set forth in subparagraphs (a)
 and (c) of the Commercial Computer Software - Restricted
 Rights clause in FAR 52.227-19.
  
 Gaussian, Inc.
 340 Quinnipiac St., Bldg. 40, Wallingford CT 06492
  
  
 ---------------------------------------------------------------
 Warning -- This program may not be used in any manner that
 competes with the business of Gaussian, Inc. or will provide
 assistance to any competitor of Gaussian, Inc.  The licensee
 of this program is prohibited from giving any competitor of
 Gaussian, Inc. access to this program.  By using this program,
 the user acknowledges that Gaussian, Inc. is engaged in the
 business of creating and licensing software in the field of
 computational chemistry and represents and warrants to the
 licensee that it is not a competitor of Gaussian, Inc. and that
 it will not use this program in any manner prohibited above.
 ---------------------------------------------------------------
  

 Cite this work as:
 Gaussian 09, Revision B.01,
 M. J. Frisch, G. W. Trucks, H. B. Schlegel, G. E. Scuseria, 
 M. A. Robb, J. R. Cheeseman, G. Scalmani, V. Barone, B. Mennucci, 
 G. A. Petersson, H. Nakatsuji, M. Caricato, X. Li, H. P. Hratchian, 
 A. F. Izmaylov, J. Bloino, G. Zheng, J. L. Sonnenberg, M. Hada, 
 M. Ehara, K. Toyota, R. Fukuda, J. Hasegawa, M. Ishida, T. Nakajima, 
 Y. Honda, O. Kitao, H. Nakai, T. Vreven, J. A. Montgomery, Jr., 
 J. E. Peralta, F. Ogliaro, M. Bearpark, J. J. Heyd, E. Brothers, 
 K. N. Kudin, V. N. Staroverov, T. Keith, R. Kobayashi, J. Normand, 
 K. Raghavachari, A. Rendell, J. C. Burant, S. S. Iyengar, J. Tomasi, 
 M. Cossi, N. Rega, J. M. Millam, M. Klene, J. E. Knox, J. B. Cross, 
 V. Bakken, C. Adamo, J. Jaramillo, R. Gomperts, R. E. Stratmann, 
 O. Yazyev, A. J. Austin, R. Cammi, C. Pomelli, J. W. Ochterski, 
 R. L. Martin, K. Morokuma, V. G. Zakrzewski, G. A. Voth, 
 P. Salvador, J. J. Dannenberg, S. Dapprich, A. D. Daniels, 
 O. Farkas, J. B. Foresman, J. V. Ortiz, J. Cioslowski, 
 and D. J. Fox, Gaussian, Inc., Wallingford CT, 2010.
 
 ******************************************
 Gaussian 09:  EM64L-G09RevB.01 12-Aug-2010
                26-Mar-2019 
 ******************************************
 %mem=16gb
 %nprocshared=20
 Will use up to   20 processors via shared memory.
 %chk=1b-conf-17.chk
 ----------------------------------------------------------------------
 # b3lyp/6-311+G(2d,p) nmr guess=read geom=check integral(ultrafinegrid
 ) scrf=(iefpcm,read,solvent=methanol)
 ----------------------------------------------------------------------
 1/29=2,38=1,40=2/1;
 2/12=2,40=1/2;
 3/5=4,6=6,7=112,11=2,14=-4,16=1,25=1,30=1,70=2203,72=3,74=-5,75=-5,116=-2/1,2,8,3;
 4/5=1/1;
 5/5=2,38=6,53=3/2;
 8/6=1,10=90,11=11/1;
 10/13=100,45=16/2;
 6/7=2,8=2,9=2,10=2,28=1/1;
 99/9=1/99;
 ----------------------------------------------------------------------
 Candidate Structure: 1b, Conformer: 17, NMR calculation with methanol 
 solvation
 ----------------------------------------------------------------------
 Redundant internal coordinates taken from checkpoint file:
 1b-conf-17.chk
 Charge =  0 Multiplicity = 1
 O,0,-2.9510548633,2.6213434685,-2.4913861736
 C,0,-2.4604893477,2.864610924,-1.2573649164
 C,0,-1.0976625041,2.8139926331,-0.9090961404
 C,0,-0.0289362635,2.4775590035,-1.8646561841
 N,0,1.2003795662,2.3020667892,-1.5840406739
 C,0,1.8894390563,2.0790201693,-2.86266972
 C,0,2.9675155407,0.9993609853,-2.747669888
 O,0,3.5764181878,0.7783606591,-4.0079925731
 C,0,3.9902313749,1.3093551167,-1.653892189
 C,0,4.8044166617,2.5504664998,-1.9166447518
 O,0,5.4545259946,2.9710438185,-0.8314397637
 O,0,4.895289693,3.1077130567,-2.9943634561
 C,0,0.7498873794,1.76006102,-3.8597459262
 C,0,0.4469214704,0.2923388521,-4.0950062952
 O,0,-0.3939227875,2.3560874131,-3.1737523313
 C,0,-0.7150208417,3.0854886474,0.4143157377
 C,0,-1.6672850941,3.3965692897,1.363979857
 Cl,0,-1.1733277377,3.7338607305,3.0073385555
 C,0,-3.0228441122,3.4487384833,1.0289455622
 C,0,-3.4077630506,3.1840536625,-0.2737170457
 H,0,-2.2340268455,2.4198091311,-3.1177412346
 H,0,2.3766619359,3.0208926248,-3.1532616185
 H,0,2.4875928107,0.0529774365,-2.4758055381
 H,0,4.0740581004,1.5792600242,-4.2454546992
 H,0,4.6997386633,0.4762521688,-1.5766754903
 H,0,3.496695064,1.4076759969,-0.6836232953
 H,0,5.9975382573,3.754394217,-1.0648246726
 H,0,0.8643542018,2.2988490228,-4.8016839545
 H,0,0.2585847399,-0.2227276965,-3.1475558163
 H,0,-0.4409162216,0.1962141167,-4.7242647047
 H,0,1.2908937314,-0.1855266563,-4.5980958208
 H,0,0.3391345776,3.0467406371,0.6711782156
 H,0,-3.7646219111,3.695831194,1.782966661
 H,0,-4.4542604266,3.2173485608,-0.5617157156
 Recover connectivity data from disk.
                          Input orientation:                          
 ---------------------------------------------------------------------
 Center     Atomic      Atomic             Coordinates (Angstroms)
 Number     Number       Type             X           Y           Z
 ---------------------------------------------------------------------
      1          8           0       -2.951055    2.621343   -2.491386
      2          6           0       -2.460489    2.864611   -1.257365
      3          6           0       -1.097663    2.813993   -0.909096
      4          6           0       -0.028936    2.477559   -1.864656
      5          7           0        1.200380    2.302067   -1.584041
      6          6           0        1.889439    2.079020   -2.862670
      7          6           0        2.967516    0.999361   -2.747670
      8          8           0        3.576418    0.778361   -4.007993
      9          6           0        3.990231    1.309355   -1.653892
     10          6           0        4.804417    2.550466   -1.916645
     11          8           0        5.454526    2.971044   -0.831440
     12          8           0        4.895290    3.107713   -2.994363
     13          6           0        0.749887    1.760061   -3.859746
     14          6           0        0.446921    0.292339   -4.095006
     15          8           0       -0.393923    2.356087   -3.173752
     16          6           0       -0.715021    3.085489    0.414316
     17          6           0       -1.667285    3.396569    1.363980
     18         17           0       -1.173328    3.733861    3.007339
     19          6           0       -3.022844    3.448738    1.028946
     20          6           0       -3.407763    3.184054   -0.273717
     21          1           0       -2.234027    2.419809   -3.117741
     22          1           0        2.376662    3.020893   -3.153262
     23          1           0        2.487593    0.052977   -2.475806
     24          1           0        4.074058    1.579260   -4.245455
     25          1           0        4.699739    0.476252   -1.576675
     26          1           0        3.496695    1.407676   -0.683623
     27          1           0        5.997538    3.754394   -1.064825
     28          1           0        0.864354    2.298849   -4.801684
     29          1           0        0.258585   -0.222728   -3.147556
     30          1           0       -0.440916    0.196214   -4.724265
     31          1           0        1.290894   -0.185527   -4.598096
     32          1           0        0.339135    3.046741    0.671178
     33          1           0       -3.764622    3.695831    1.782967
     34          1           0       -4.454260    3.217349   -0.561716
 ---------------------------------------------------------------------
                    Distance matrix (angstroms):
                    1          2          3          4          5
     1  O    0.000000
     2  C    1.350053   0.000000
     3  C    2.444549   1.407533   0.000000
     4  C    2.992030   2.535954   1.472569   0.000000
     5  N    4.261411   3.718217   2.449207   1.273091   0.000000
     6  C    4.884910   4.702769   3.644092   2.198870   1.469505
     7  C    6.142148   5.929874   4.816525   3.455938   2.484722
     8  O    6.950150   6.954326   5.966070   4.525455   3.720589
     9  C    7.113660   6.647394   5.357735   4.190803   2.962031
    10  C    7.777062   7.301520   5.993258   4.834182   3.627866
    11  O    8.575051   7.927182   6.554530   5.601734   4.371693
    12  O    7.877478   7.561994   6.352172   5.091300   4.036141
    13  C    4.038711   4.277726   3.637382   2.258706   2.382341
    14  C    4.420645   4.808516   4.346781   3.158495   3.303279
    15  O    2.659870   2.863884   2.415284   1.364442   2.252088
    16  C    3.695725   2.426925   1.404117   2.456421   2.876793
    17  C    4.136773   2.789911   2.414693   3.735352   4.255850
    18  Cl   5.885064   4.538731   4.023723   5.159870   5.363328
    19  C    3.616970   2.425833   2.804502   4.275465   5.096879
    20  C    2.333084   1.402474   2.424297   3.800880   4.871327
    21  H    0.973173   1.926171   2.514919   2.536924   3.763143
    22  H    5.383520   5.197777   4.141258   2.782556   2.088733
    23  H    6.014618   5.820086   4.788720   3.547537   2.740541
    24  H    7.315388   7.299392   6.277145   4.828013   3.982914
    25  H    7.998297   7.554805   6.286537   5.142813   3.947045
    26  H    6.805474   6.159536   4.810061   3.869052   2.623690
    27  H    9.132152   8.506881   7.158944   6.211959   5.039005
    28  H    4.472005   4.892532   4.389433   3.075067   3.235143
    29  H    4.338328   4.527455   4.008962   3.003339   3.115469
    30  H    4.143404   4.818549   4.673285   3.681253   4.121829
    31  H    5.505531   5.876793   5.320812   4.038028   3.909072
    32  H    4.583462   3.404459   2.148447   2.624862   2.526320
    33  H    4.481797   3.411056   3.890696   5.361407   6.158779
    34  H    2.517633   2.140905   3.398547   4.672091   5.818749
                    6          7          8          9         10
     6  C    0.000000
     7  C    1.530078   0.000000
     8  O    2.418549   1.417045   0.000000
     9  C    2.543001   1.529181   2.448466   0.000000
    10  C    3.100697   2.543764   3.003677   1.507413   0.000000
    11  O    4.198982   3.707383   4.292509   2.362582   1.333116
    12  O    3.179731   2.867459   2.862298   2.418695   1.216659
    13  C    1.547409   2.594851   2.995829   3.945726   4.565040
    14  C    2.606097   2.944247   3.168207   4.421358   5.369559
    15  O    2.321051   3.649866   4.353020   4.756725   5.351713
    16  C    4.305209   5.283101   6.579977   5.437971   6.015298
    17  C    5.678978   6.643316   7.950442   6.743256   7.304883
    18  Cl   6.824664   7.598960   8.972733   7.366657   7.834505
    19  C    6.414930   7.493109   8.720776   7.807548   8.411267
    20  C    5.998677   7.178962   8.277135   7.755624   8.398842
    21  H    4.145379   5.404690   6.103128   6.489788   7.141386
    22  H    1.099524   2.144808   2.683082   2.789458   2.764872
    23  H    2.147627   1.095389   2.014775   2.124135   3.452215
    24  H    2.633328   1.950405   0.972355   2.606928   2.626789
    25  H    3.481441   2.155335   2.695259   1.097007   2.104496
    26  H    2.789663   2.169571   3.384350   1.093008   2.129894
    27  H    4.787025   4.427552   4.835373   3.217841   1.896992
    28  H    2.204291   3.214176   3.208913   4.545195   4.889873
    29  H    2.835293   2.998619   3.570791   4.301569   5.465376
    30  H    3.527187   4.021117   4.122004   5.504665   6.398340
    31  H    2.915156   2.763891   2.549691   4.264907   5.198142
    32  H    3.978443   4.773748   6.125373   4.664222   5.184772
    33  H    7.494293   8.550982   9.794780   8.811641   9.403585
    34  H    6.843442   8.048641   9.072887   8.725980   9.381027
                   11         12         13         14         15
    11  O    0.000000
    12  O    2.238228   0.000000
    13  C    5.724574   4.444031   0.000000
    14  C    6.549995   5.378264   1.517018   0.000000
    15  O    6.330004   5.345362   1.460868   2.411387   0.000000
    16  C    6.295102   6.564691   4.708537   5.430081   3.675508
    17  C    7.464659   7.883272   5.983995   6.626209   4.826496
    18  Cl   7.697178   8.558073   7.399425   8.056835   6.380565
    19  C    8.692240   8.888203   6.401909   6.946727   5.076198
    20  C    8.882376   8.737759   5.672161   6.150029   4.263680
    21  H    8.040204   7.163490   3.144771   3.559306   1.842059
    22  H    3.855722   2.525128   2.176054   3.472144   2.849303
    23  H    4.474566   3.923941   2.801615   2.615998   3.754275
    24  H    3.936782   2.139116   3.351354   3.851613   4.659921
    25  H    2.710916   2.995441   4.739399   4.945935   5.659490
    26  H    2.509795   3.191506   4.213892   4.709844   4.715627
    27  H    0.981310   2.314361   6.271108   7.209520   6.874126
    28  H    6.106092   4.491003   1.091166   2.167885   2.058324
    29  H    6.523985   5.710896   2.163341   1.094727   2.660214
    30  H    7.590125   6.320164   2.147329   1.092457   2.659201
    31  H    6.441077   5.138974   2.150153   1.092586   3.365585
    32  H    5.332056   5.847945   4.727953   5.505893   3.974653
    33  H    9.610053   9.907716   7.481190   7.991960   6.142116
    34  H    9.915516   9.661464   6.331180   6.712779   4.904166
                   16         17         18         19         20
    16  C    0.000000
    17  C    1.380377   0.000000
    18  Cl   2.711863   1.748825   0.000000
    19  C    2.415734   1.397322   2.723242   0.000000
    20  C    2.781001   2.399266   4.007532   1.383890   0.000000
    21  H    3.902042   4.621805   6.353614   4.344645   3.170205
    22  H    4.721259   6.074546   7.145890   6.843141   6.463588
    23  H    5.273107   6.571649   7.550901   7.360665   7.029086
    24  H    6.849632   8.229908   9.207626   9.037714   8.621352
    25  H    6.331807   7.597019   8.131304   8.675438   8.646472
    26  H    4.664663   5.900429   6.390888   7.042955   7.141084
    27  H    6.906065   8.048394   8.246469   9.265236   9.455730
    28  H    5.506349   6.754968   8.197087   7.101324   6.287850
    29  H    4.957735   6.096084   7.455715   6.456826   5.771240
    30  H    5.901529   6.986628   8.533994   7.095400   6.126723
    31  H    6.312488   7.558345   8.903742   7.967422   7.220228
    32  H    1.085690   2.151296   2.866587   3.404776   3.866642
    33  H    3.397910   2.159613   2.866241   1.086203   2.149235
    34  H    3.866773   3.392293   4.875393   2.152370   1.085914
                   21         22         23         24         25
    21  H    0.000000
    22  H    4.649840   0.000000
    23  H    5.320495   3.046272   0.000000
    24  H    6.462987   2.480392   2.824548   0.000000
    25  H    7.364061   3.789130   2.425116   2.954739   0.000000
    26  H    6.307973   3.155322   2.462806   3.612400   1.764201
    27  H    8.588029   4.243859   5.292549   4.306668   3.562652
    28  H    3.528493   2.350685   3.617811   3.336075   5.332233
    29  H    3.632768   3.873933   2.344299   4.360089   4.762361
    30  H    3.277276   4.287844   3.694895   4.746269   6.034242
    31  H    4.626477   3.680701   2.448079   3.314337   4.602951
    32  H    4.622782   4.333420   4.845823   6.346372   5.538513
    33  H    5.290358   7.908050   8.396292  10.112697   9.659104
    34  H    3.478329   7.308639   7.865514   9.433212   9.609342
                   26         27         28         29         30
    26  H    0.000000
    27  H    3.450597   0.000000
    28  H    4.968081   6.514009   0.000000
    29  H    4.383439   7.286347   3.075946   0.000000
    30  H    5.770546   8.216194   2.476045   1.775056   0.000000
    31  H    4.767279   7.082336   2.528934   1.780762   1.777867
    32  H    3.806863   5.960873   5.548641   5.027787   6.151812
    33  H    8.002902  10.169224   8.169247   7.473376   8.101753
    34  H    8.155211  10.477673   6.863573   6.382132   6.523879
                   31         32         33         34
    31  H    0.000000
    32  H    6.254490   0.000000
    33  H    9.018932   4.300954   0.000000
    34  H    7.802482   4.952350   2.490398   0.000000
 Stoichiometry    C13H14ClNO5
 Framework group  C1[X(C13H14ClNO5)]
 Deg. of freedom    96
 Full point group                 C1      NOp   1
 Largest Abelian subgroup         C1      NOp   1
 Largest concise Abelian subgroup C1      NOp   1
                         Standard orientation:                         
 ---------------------------------------------------------------------
 Center     Atomic      Atomic             Coordinates (Angstroms)
 Number     Number       Type             X           Y           Z
 ---------------------------------------------------------------------
      1          8           0       -2.491191   -2.807429   -0.517103
      2          6           0       -2.752581   -1.498903   -0.311977
      3          6           0       -1.775193   -0.497178   -0.162271
      4          6           0       -0.327698   -0.764209   -0.205994
      5          7           0        0.597719    0.075228    0.038357
      6          6           0        1.866373   -0.619742   -0.220449
      7          6           0        2.935641   -0.256059    0.811800
      8          8           0        4.127439   -0.979714    0.558897
      9          6           0        3.177302    1.251553    0.896054
     10          6           0        3.735532    1.849711   -0.369995
     11          8           0        3.646251    3.179736   -0.386129
     12          8           0        4.239882    1.213860   -1.276407
     13          6           0        1.479850   -2.117578   -0.259962
     14          6           0        1.648253   -2.894765    1.031922
     15          8           0        0.051625   -2.027907   -0.553677
     16          6           0       -2.177984    0.831054    0.050103
     17          6           0       -3.519621    1.149528    0.113540
     18         17           0       -4.004054    2.809167    0.376808
     19          6           0       -4.497910    0.162622   -0.033010
     20          6           0       -4.108903   -1.148552   -0.244307
     21          1           0       -1.532483   -2.967949   -0.563767
     22          1           0        2.226460   -0.308708   -1.211685
     23          1           0        2.592052   -0.579156    1.800453
     24          1           0        4.498641   -0.662245   -0.281874
     25          1           0        3.905603    1.456443    1.690422
     26          1           0        2.253886    1.774269    1.158233
     27          1           0        4.057067    3.520027   -1.209780
     28          1           0        1.939327   -2.639166   -1.101074
     29          1           0        1.119157   -2.402189    1.854025
     30          1           0        1.241151   -3.901351    0.911446
     31          1           0        2.708412   -2.969590    1.285311
     32          1           0       -1.415735    1.596162    0.161054
     33          1           0       -5.551178    0.423311    0.017038
     34          1           0       -4.847900   -1.935560   -0.361395
 ---------------------------------------------------------------------
 Rotational constants (GHZ):      0.4441784      0.1710352      0.1299572
 Standard basis: 6-311+G(2d,p) (5D, 7F)
 There are   632 symmetry adapted basis functions of A   symmetry.
 Integral buffers will be    131072 words long.
 Raffenetti 2 integral format.
 Two-electron integral symmetry is turned on.
   632 basis functions,   969 primitive gaussians,   672 cartesian basis functions
    78 alpha electrons       78 beta electrons
       nuclear repulsion energy      1683.7382477525 Hartrees.
 NAtoms=   34 NActive=   34 NUniq=   34 SFac= 1.00D+00 NAtFMM=   50 NAOKFM=F Big=F
 Using the following non-standard input for PCM:
 radii=bondi
 --- end of non-standard input.
 ------------------------------------------------------------------------------
 Polarizable Continuum Model (PCM)
 =================================
 Model                : PCM.
 Atomic radii         : Bondi.
 Polarization charges : Total charges.
 Charge compensation  : None.
 Solution method      : Matrix inversion.
 Cavity type          : Scaled VdW (van der Waals Surface) (Alpha=1.100).
 Cavity algorithm     : GePol (No added spheres)
                        Default sphere list used, NSphG=   34.
                        Lebedev-Laikov grids with approx.  5.0 points / Ang**2.
                        Smoothing algorithm: Karplus/York (Gamma=1.0000).
                        Polarization charges: spherical gaussians, with
                                              point-specific exponents (IZeta= 3).
                        Self-potential: point-specific (ISelfS= 7).
                        Self-field    : sphere-specific E.n sum rule (ISelfD= 2).
 Solvent              : Methanol, Eps=  32.613000 Eps(inf)=   1.765709
 ------------------------------------------------------------------------------
 One-electron integrals computed using PRISM.
 NBasis=   632 RedAO= T  NBF=   632
 NBsUse=   630 1.00D-06 NBFU=   630
 Initial guess read from the checkpoint file:  1b-conf-17.chk
 B after Tr=     0.000000    0.000000    0.000000
         Rot=    1.000000    0.000000    0.000000    0.000000 Ang=   0.00 deg.
 Initial guess orbital symmetries:
       Occupied  (A) (A) (A) (A) (A) (A) (A) (A) (A) (A) (A) (A)
                 (A) (A) (A) (A) (A) (A) (A) (A) (A) (A) (A) (A)
                 (A) (A) (A) (A) (A) (A) (A) (A) (A) (A) (A) (A)
                 (A) (A) (A) (A) (A) (A) (A) (A) (A) (A) (A) (A)
                 (A) (A) (A) (A) (A) (A) (A) (A) (A) (A) (A) (A)
                 (A) (A) (A) (A) (A) (A) (A) (A) (A) (A) (A) (A)
                 (A) (A) (A) (A) (A) (A)
       Virtual   (A) (A) (A) (A) (A) (A) (A) (A) (A) (A) (A) (A)
                 (A) (A) (A) (A) (A) (A) (A) (A) (A) (A) (A) (A)
                 (A) (A) (A) (A) (A) (A) (A) (A) (A) (A) (A) (A)
                 (A) (A) (A) (A) (A) (A) (A) (A) (A) (A) (A) (A)
                 (A) (A) (A) (A) (A) (A) (A) (A) (A) (A) (A) (A)
                 (A) (A) (A) (A) (A) (A) (A) (A) (A) (A) (A) (A)
                 (A) (A) (A) (A) (A) (A) (A) (A) (A) (A) (A) (A)
                 (A) (A) (A) (A) (A) (A) (A) (A) (A) (A) (A) (A)
                 (A) (A) (A) (A) (A) (A) (A) (A) (A) (A) (A) (A)
                 (A) (A) (A) (A) (A) (A) (A) (A) (A) (A) (A) (A)
                 (A) (A) (A) (A) (A) (A) (A) (A) (A) (A) (A) (A)
                 (A) (A) (A) (A) (A) (A) (A) (A) (A) (A) (A) (A)
                 (A) (A) (A) (A) (A) (A) (A) (A) (A) (A) (A) (A)
                 (A) (A) (A) (A) (A) (A) (A) (A) (A) (A) (A) (A)
                 (A) (A) (A) (A) (A) (A) (A) (A) (A) (A) (A) (A)
                 (A) (A) (A) (A) (A) (A) (A) (A) (A) (A) (A) (A)
                 (A) (A) (A) (A) (A) (A) (A) (A) (A) (A) (A) (A)
                 (A) (A) (A) (A) (A) (A) (A) (A) (A) (A) (A) (A)
                 (A) (A) (A) (A) (A) (A) (A) (A) (A) (A) (A) (A)
                 (A) (A) (A) (A) (A) (A) (A) (A) (A) (A) (A) (A)
                 (A) (A) (A) (A) (A) (A) (A) (A) (A) (A) (A) (A)
                 (A) (A) (A) (A) (A) (A) (A) (A) (A) (A) (A) (A)
                 (A) (A) (A) (A) (A) (A) (A) (A) (A) (A) (A) (A)
                 (A) (A) (A) (A) (A) (A) (A) (A) (A) (A) (A) (A)
                 (A) (A) (A) (A) (A) (A) (A) (A) (A) (A) (A) (A)
                 (A) (A) (A) (A) (A) (A) (A) (A) (A) (A) (A) (A)
                 (A) (A) (A) (A) (A) (A) (A) (A) (A) (A) (A) (A)
                 (A) (A) (A) (A) (A) (A) (A) (A) (A) (A) (A) (A)
                 (A) (A) (A) (A) (A) (A) (A) (A) (A) (A) (A) (A)
                 (A) (A) (A) (A) (A) (A) (A) (A) (A) (A) (A) (A)
                 (A) (A) (A) (A) (A) (A) (A) (A) (A) (A) (A) (A)
                 (A) (A) (A) (A) (A) (A) (A) (A) (A) (A) (A) (A)
                 (A) (A) (A) (A) (A) (A) (A) (A) (A) (A) (A) (A)
                 (A) (A) (A) (A) (A) (A) (A) (A) (A) (A) (A) (A)
                 (A) (A) (A) (A) (A) (A) (A) (A) (A) (A) (A) (A)
                 (A) (A) (A) (A) (A) (A) (A) (A) (A) (A) (A) (A)
                 (A) (A) (A) (A) (A) (A) (A) (A) (A) (A) (A) (A)
                 (A) (A) (A) (A) (A) (A) (A) (A) (A) (A) (A) (A)
                 (A) (A) (A) (A) (A) (A) (A) (A) (A) (A) (A) (A)
                 (A) (A) (A) (A) (A) (A) (A) (A) (A) (A) (A) (A)
                 (A) (A) (A) (A) (A) (A) (A) (A) (A) (A) (A) (A)
                 (A) (A) (A) (A) (A) (A) (A) (A) (A) (A) (A) (A)
                 (A) (A) (A) (A) (A) (A) (A) (A) (A) (A) (A) (A)
                 (A) (A) (A) (A) (A) (A) (A) (A) (A) (A) (A) (A)
                 (A) (A) (A) (A) (A) (A) (A) (A) (A) (A) (A) (A)
                 (A) (A) (A) (A) (A) (A) (A) (A) (A) (A) (A) (A)
 Requested convergence on RMS density matrix=1.00D-08 within 128 cycles.
 Requested convergence on MAX density matrix=1.00D-06.
 Requested convergence on             energy=1.00D-06.
 No special actions if energy rises.
 Error on total polarization charges =  0.05046
 SCF Done:  E(RB3LYP) =  -1395.25082308     A.U. after   13 cycles
             Convg  =    0.4017D-08             -V/T =  2.0034
 Range of M.O.s used for correlation:     1   630
 NBasis=   632 NAE=    78 NBE=    78 NFC=     0 NFV=     0
 NROrb=    630 NOA=    78 NOB=    78 NVA=   552 NVB=   552

 **** Warning!!: The largest alpha MO coefficient is  0.12501346D+03

 NEqPCM:  Using equilibrium solvation (IEInf=0, Eps=  32.6130, EpsInf=   1.7657)
          Differentiating once with respect to magnetic field using GIAOs.
          Electric field/nuclear overlap derivatives assumed to be zero.
 FoFCou: FMM=F IPFlag=           0 FMFlag=    10101102 FMFlg1=           0
         NFxFlg=    40000000 DoJE=F BraDBF=F KetDBF=T FulRan=T
         Omega=  0.000000  0.000000  1.000000  0.000000  0.000000 ICntrl=    6100 IOpCl=  0
         NMat0=    1 NMatS0=    1 NMatT0=    0 NMatD0=    1 NMtDS0=    0 NMtDT0=    0
         I1Cent=           7 NGrid=        2484.
 Symmetry not used in FoFCou.
          There are     3 degrees of freedom in the 1st order CPHF.  IDoFFX=0.
      3 vectors produced by pass  0 Test12= 1.44D-12 3.33D-08 XBig12= 4.70D+02 9.31D+00.
 AX will form     3 AO Fock derivatives at one time.
      3 vectors produced by pass  1 Test12= 1.44D-12 3.33D-08 XBig12= 1.02D+00 2.96D-01.
      3 vectors produced by pass  2 Test12= 1.44D-12 3.33D-08 XBig12= 4.81D-03 2.19D-02.
      3 vectors produced by pass  3 Test12= 1.44D-12 3.33D-08 XBig12= 1.82D-05 9.25D-04.
      3 vectors produced by pass  4 Test12= 1.44D-12 3.33D-08 XBig12= 3.40D-08 4.46D-05.
      3 vectors produced by pass  5 Test12= 1.44D-12 3.33D-08 XBig12= 1.35D-10 2.87D-06.
      3 vectors produced by pass  6 Test12= 1.44D-12 3.33D-08 XBig12= 4.09D-13 1.47D-07.
 Inverted reduced A of dimension    21 with in-core refinement.
 Calculating GIAO nuclear magnetic shielding tensors.
 SCF GIAO Magnetic shielding tensor (ppm):
  1  O    Isotropic =   200.6589   Anisotropy =    92.2761
   XX=   138.8300   YX=    -8.9578   ZX=     1.5422
   XY=    -7.9701   YY=   203.5535   ZY=   -10.3785
   XZ=    -0.8611   YZ=   -14.0597   ZZ=   259.5931
   Eigenvalues:   137.7290   202.0713   262.1763
  2  C    Isotropic =    18.7775   Anisotropy =   143.5598
   XX=    -2.7035   YX=    19.9072   ZX=     4.7604
   XY=     9.5856   YY=   -51.5003   ZY=   -25.8786
   XZ=     2.2144   YZ=   -25.2342   ZZ=   110.5364
   Eigenvalues:   -59.4566     1.3051   114.4841
  3  C    Isotropic =    64.3690   Anisotropy =   136.2078
   XX=     1.5834   YX=     2.1933   ZX=     1.1242
   XY=    17.6872   YY=    39.0558   ZY=   -18.7254
   XZ=     4.4525   YZ=   -16.6601   ZZ=   152.4677
   Eigenvalues:    -1.2207    39.1535   155.1741
  4  C    Isotropic =    12.3507   Anisotropy =    70.4724
   XX=     5.3578   YX=    64.1435   ZX=    17.0061
   XY=    61.3449   YY=   -18.3957   ZY=   -20.2885
   XZ=    22.4122   YZ=   -19.2746   ZZ=    50.0899
   Eigenvalues:   -76.4883    54.2081    59.3323
  5  N    Isotropic =    16.8832   Anisotropy =   240.6075
   XX=  -111.8057   YX=    66.4527   ZX=    31.2602
   XY=    48.1194   YY=    -3.6173   ZY=   -58.3925
   XZ=    -8.3058   YZ=   -31.5817   ZZ=   166.0727
   Eigenvalues:  -139.2088    12.5703   177.2882
  6  C    Isotropic =   109.5251   Anisotropy =    51.1720
   XX=   138.0343   YX=   -14.6492   ZX=     5.6833
   XY=   -11.4565   YY=   113.0640   ZY=    11.1607
   XZ=    -2.7282   YZ=     2.6277   ZZ=    77.4772
   Eigenvalues:    75.9325   109.0031   143.6398
  7  C    Isotropic =   110.1347   Anisotropy =    55.7346
   XX=   138.7372   YX=   -20.1280   ZX=    -5.6067
   XY=   -15.6677   YY=   104.8296   ZY=     8.0719
   XZ=    -3.8213   YZ=     6.2608   ZZ=    86.8372
   Eigenvalues:    84.2783    98.8346   147.2911
  8  O    Isotropic =   279.9287   Anisotropy =    22.8701
   XX=   294.8411   YX=    -2.0038   ZX=    -2.9557
   XY=     1.4074   YY=   269.8312   ZY=   -10.2206
   XZ=    -2.1700   YZ=    -0.8466   ZZ=   275.1139
   Eigenvalues:   266.2481   278.3626   295.1755
  9  C    Isotropic =   144.2467   Anisotropy =    31.6314
   XX=   138.8402   YX=    11.8299   ZX=    -5.3747
   XY=     4.6408   YY=   158.2443   ZY=    -2.2679
   XZ=    -1.5677   YZ=   -18.5862   ZZ=   135.6555
   Eigenvalues:   131.5666   135.8391   165.3343
 10  C    Isotropic =    -2.0928   Anisotropy =   112.8422
   XX=    59.6584   YX=     1.0315   ZX=    26.3012
   XY=   -13.0026   YY=   -79.9818   ZY=    51.0508
   XZ=    27.6212   YZ=    28.5888   ZZ=    14.0450
   Eigenvalues:   -96.0457    16.6320    73.1353
 11  O    Isotropic =   112.5380   Anisotropy =   189.7442
   XX=   104.4726   YX=   -15.0304   ZX=    80.8946
   XY=    34.1932   YY=   235.5481   ZY=   -78.0881
   XZ=    73.8462   YZ=    20.0710   ZZ=    -2.4067
   Eigenvalues:   -46.2241   144.8040   239.0341
 12  O    Isotropic =   -60.5323   Anisotropy =   484.3271
   XX=   169.8619   YX=    42.8421   ZX=   181.2548
   XY=    62.3661   YY=  -270.8049   ZY=   -32.9636
   XZ=   167.8169   YZ=     0.1621   ZZ=   -80.6538
   Eigenvalues:  -286.4611  -157.4882   262.3524
 13  C    Isotropic =    96.6004   Anisotropy =    81.0390
   XX=   145.9369   YX=     2.9745   ZX=    13.6804
   XY=    -1.2738   YY=    79.8122   ZY=    -4.0559
   XZ=    26.3795   YZ=   -20.2065   ZZ=    64.0522
   Eigenvalues:    53.8508    85.3240   150.6264
 14  C    Isotropic =   167.1788   Anisotropy =    22.0606
   XX=   171.6836   YX=     3.2499   ZX=     0.9456
   XY=    -0.9498   YY=   158.5405   ZY=   -12.8752
   XZ=     9.9305   YZ=   -15.0478   ZZ=   171.3122
   Eigenvalues:   148.8894   170.7611   181.8859
 15  O    Isotropic =   117.8227   Anisotropy =   124.4921
   XX=    41.1863   YX=   -34.0532   ZX=   -13.4967
   XY=   -40.2088   YY=   192.1760   ZY=    -3.8870
   XZ=    14.7494   YZ=     5.3877   ZZ=   120.1057
   Eigenvalues:    32.5422   120.1084   200.8174
 16  C    Isotropic =    47.0229   Anisotropy =   154.2676
   XX=     7.6303   YX=   -43.8173   ZX=    -4.5992
   XY=   -39.4890   YY=   -13.2098   ZY=   -24.9033
   XZ=    -7.8658   YZ=   -20.9187   ZZ=   146.6480
   Eigenvalues:   -48.1989    39.3995   149.8679
 17  C    Isotropic =    46.8957   Anisotropy =   100.4602
   XX=    64.2200   YX=    27.6792   ZX=     4.8164
   XY=    25.3798   YY=   -33.8675   ZY=   -23.2711
   XZ=     4.7759   YZ=   -22.3614   ZZ=   110.3346
   Eigenvalues:   -44.0973    70.9153   113.8692
 18  Cl   Isotropic =   709.1079   Anisotropy =   492.7414
   XX=   566.6382   YX=  -130.7733   ZX=   -20.6091
   XY=  -131.6315   YY=   989.4587   ZY=    67.8262
   XZ=   -21.4280   YZ=    67.3745   ZZ=   571.2270
   Eigenvalues:   529.1464   560.5752  1037.6022
 19  C    Isotropic =    42.5773   Anisotropy =   162.2035
   XX=   -51.9648   YX=    16.7683   ZX=     4.4668
   XY=    16.9765   YY=    32.1806   ZY=   -18.8938
   XZ=     5.6725   YZ=   -19.8759   ZZ=   147.5161
   Eigenvalues:   -55.5970    32.6160   150.7130
 20  C    Isotropic =    58.2314   Anisotropy =   146.9799
   XX=    10.9536   YX=   -36.9114   ZX=    -4.2636
   XY=   -37.0094   YY=    11.0465   ZY=   -22.5212
   XZ=    -4.3586   YZ=   -22.6182   ZZ=   152.6939
   Eigenvalues:   -27.9829    46.4590   156.2180
 21  H    Isotropic =    23.4294   Anisotropy =    20.8433
   XX=    37.3148   YX=     1.7368   ZX=     0.2323
   XY=    -0.9507   YY=    21.7843   ZY=     1.8323
   XZ=    -0.2046   YZ=     1.9689   ZZ=    11.1891
   Eigenvalues:    10.8584    22.1049    37.3249
 22  H    Isotropic =    27.1718   Anisotropy =     6.6082
   XX=    28.3018   YX=     3.0616   ZX=    -1.0131
   XY=     2.5999   YY=    26.6720   ZY=    -1.1015
   XZ=    -3.5743   YZ=    -0.7415   ZZ=    26.5415
   Eigenvalues:    24.2414    25.6967    31.5772
 23  H    Isotropic =    27.8173   Anisotropy =     3.4102
   XX=    27.1792   YX=     2.4454   ZX=    -2.1888
   XY=     0.6941   YY=    28.7033   ZY=     0.1941
   XZ=    -0.0824   YZ=    -1.0907   ZZ=    27.5694
   Eigenvalues:    25.8410    27.5202    30.0908
 24  H    Isotropic =    28.4060   Anisotropy =    16.9724
   XX=    27.5185   YX=    -0.4263   ZX=    -8.6754
   XY=    -0.5282   YY=    25.6657   ZY=    -5.0840
   XZ=    -8.0150   YZ=    -6.1125   ZZ=    32.0338
   Eigenvalues:    18.7589    26.7382    39.7210
 25  H    Isotropic =    28.7631   Anisotropy =     6.7454
   XX=    26.9610   YX=     1.6098   ZX=     3.0006
   XY=     2.5475   YY=    28.9594   ZY=     1.3076
   XZ=     2.9617   YZ=     1.3511   ZZ=    30.3689
   Eigenvalues:    24.8591    28.1702    33.2600
 26  H    Isotropic =    28.3962   Anisotropy =     5.8274
   XX=    29.9849   YX=    -1.5234   ZX=    -1.9493
   XY=    -0.8650   YY=    30.8714   ZY=     1.2039
   XZ=    -0.8464   YZ=     2.0744   ZZ=    24.3324
   Eigenvalues:    23.7464    29.1611    32.2812
 27  H    Isotropic =    24.7250   Anisotropy =    11.8725
   XX=    22.6275   YX=     2.0433   ZX=    -1.7809
   XY=     4.1822   YY=    26.5841   ZY=    -7.6506
   XZ=    -2.0411   YZ=    -3.3602   ZZ=    24.9635
   Eigenvalues:    19.9791    21.5559    32.6400
 28  H    Isotropic =    26.4490   Anisotropy =     4.1221
   XX=    26.7579   YX=    -1.3478   ZX=    -1.9969
   XY=    -0.0489   YY=    25.8699   ZY=     1.9890
   XZ=    -0.8546   YZ=     1.7302   ZZ=    26.7192
   Eigenvalues:    24.3224    25.8276    29.1971
 29  H    Isotropic =    30.4691   Anisotropy =     4.9753
   XX=    28.7056   YX=    -0.3642   ZX=    -2.3897
   XY=    -0.2593   YY=    29.6394   ZY=    -0.7647
   XZ=    -1.2377   YZ=    -0.5794   ZZ=    33.0623
   Eigenvalues:    27.8894    29.7318    33.7860
 30  H    Isotropic =    30.5320   Anisotropy =     9.3063
   XX=    28.1590   YX=     2.1688   ZX=     1.0271
   XY=     1.7904   YY=    36.0384   ZY=    -0.8446
   XZ=     0.7316   YZ=    -2.5468   ZZ=    27.3987
   Eigenvalues:    26.1718    28.6880    36.7362
 31  H    Isotropic =    30.3065   Anisotropy =     8.3636
   XX=    34.1355   YX=    -0.3086   ZX=     2.9836
   XY=    -0.5873   YY=    30.1221   ZY=    -2.5543
   XZ=     3.9573   YZ=    -2.9113   ZZ=    26.6619
   Eigenvalues:    24.2959    30.7413    35.8822
 32  H    Isotropic =    23.4187   Anisotropy =    12.2724
   XX=    28.4027   YX=    -4.5937   ZX=    -0.5586
   XY=    -5.1378   YY=    24.0296   ZY=     0.9907
   XZ=    -0.4240   YZ=     0.5355   ZZ=    17.8238
   Eigenvalues:    17.7300    20.9259    31.6003
 33  H    Isotropic =    24.0829   Anisotropy =     7.1575
   XX=    23.7350   YX=     1.3329   ZX=     0.1971
   XY=     1.9874   YY=    28.1150   ZY=     1.2311
   XZ=     0.4113   YZ=     1.1779   ZZ=    20.3987
   Eigenvalues:    20.2143    23.1798    28.8545
 34  H    Isotropic =    24.5627   Anisotropy =     5.6342
   XX=    26.6853   YX=    -1.5487   ZX=    -0.2294
   XY=    -2.3724   YY=    25.7833   ZY=     0.7882
   XZ=    -0.3574   YZ=     0.7751   ZZ=    21.2196
   Eigenvalues:    21.0892    24.2802    28.3188
 End of Minotr Frequency-dependent properties file   721 does not exist.
 End of Minotr Frequency-dependent properties file   722 does not exist.

 **********************************************************************

            Population analysis using the SCF density.

 **********************************************************************

 Orbital symmetries:
       Occupied  (A) (A) (A) (A) (A) (A) (A) (A) (A) (A) (A) (A)
                 (A) (A) (A) (A) (A) (A) (A) (A) (A) (A) (A) (A)
                 (A) (A) (A) (A) (A) (A) (A) (A) (A) (A) (A) (A)
                 (A) (A) (A) (A) (A) (A) (A) (A) (A) (A) (A) (A)
                 (A) (A) (A) (A) (A) (A) (A) (A) (A) (A) (A) (A)
                 (A) (A) (A) (A) (A) (A) (A) (A) (A) (A) (A) (A)
                 (A) (A) (A) (A) (A) (A)
       Virtual   (A) (A) (A) (A) (A) (A) (A) (A) (A) (A) (A) (A)
                 (A) (A) (A) (A) (A) (A) (A) (A) (A) (A) (A) (A)
                 (A) (A) (A) (A) (A) (A) (A) (A) (A) (A) (A) (A)
                 (A) (A) (A) (A) (A) (A) (A) (A) (A) (A) (A) (A)
                 (A) (A) (A) (A) (A) (A) (A) (A) (A) (A) (A) (A)
                 (A) (A) (A) (A) (A) (A) (A) (A) (A) (A) (A) (A)
                 (A) (A) (A) (A) (A) (A) (A) (A) (A) (A) (A) (A)
                 (A) (A) (A) (A) (A) (A) (A) (A) (A) (A) (A) (A)
                 (A) (A) (A) (A) (A) (A) (A) (A) (A) (A) (A) (A)
                 (A) (A) (A) (A) (A) (A) (A) (A) (A) (A) (A) (A)
                 (A) (A) (A) (A) (A) (A) (A) (A) (A) (A) (A) (A)
                 (A) (A) (A) (A) (A) (A) (A) (A) (A) (A) (A) (A)
                 (A) (A) (A) (A) (A) (A) (A) (A) (A) (A) (A) (A)
                 (A) (A) (A) (A) (A) (A) (A) (A) (A) (A) (A) (A)
                 (A) (A) (A) (A) (A) (A) (A) (A) (A) (A) (A) (A)
                 (A) (A) (A) (A) (A) (A) (A) (A) (A) (A) (A) (A)
                 (A) (A) (A) (A) (A) (A) (A) (A) (A) (A) (A) (A)
                 (A) (A) (A) (A) (A) (A) (A) (A) (A) (A) (A) (A)
                 (A) (A) (A) (A) (A) (A) (A) (A) (A) (A) (A) (A)
                 (A) (A) (A) (A) (A) (A) (A) (A) (A) (A) (A) (A)
                 (A) (A) (A) (A) (A) (A) (A) (A) (A) (A) (A) (A)
                 (A) (A) (A) (A) (A) (A) (A) (A) (A) (A) (A) (A)
                 (A) (A) (A) (A) (A) (A) (A) (A) (A) (A) (A) (A)
                 (A) (A) (A) (A) (A) (A) (A) (A) (A) (A) (A) (A)
                 (A) (A) (A) (A) (A) (A) (A) (A) (A) (A) (A) (A)
                 (A) (A) (A) (A) (A) (A) (A) (A) (A) (A) (A) (A)
                 (A) (A) (A) (A) (A) (A) (A) (A) (A) (A) (A) (A)
                 (A) (A) (A) (A) (A) (A) (A) (A) (A) (A) (A) (A)
                 (A) (A) (A) (A) (A) (A) (A) (A) (A) (A) (A) (A)
                 (A) (A) (A) (A) (A) (A) (A) (A) (A) (A) (A) (A)
                 (A) (A) (A) (A) (A) (A) (A) (A) (A) (A) (A) (A)
                 (A) (A) (A) (A) (A) (A) (A) (A) (A) (A) (A) (A)
                 (A) (A) (A) (A) (A) (A) (A) (A) (A) (A) (A) (A)
                 (A) (A) (A) (A) (A) (A) (A) (A) (A) (A) (A) (A)
                 (A) (A) (A) (A) (A) (A) (A) (A) (A) (A) (A) (A)
                 (A) (A) (A) (A) (A) (A) (A) (A) (A) (A) (A) (A)
                 (A) (A) (A) (A) (A) (A) (A) (A) (A) (A) (A) (A)
                 (A) (A) (A) (A) (A) (A) (A) (A) (A) (A) (A) (A)
                 (A) (A) (A) (A) (A) (A) (A) (A) (A) (A) (A) (A)
                 (A) (A) (A) (A) (A) (A) (A) (A) (A) (A) (A) (A)
                 (A) (A) (A) (A) (A) (A) (A) (A) (A) (A) (A) (A)
                 (A) (A) (A) (A) (A) (A) (A) (A) (A) (A) (A) (A)
                 (A) (A) (A) (A) (A) (A) (A) (A) (A) (A) (A) (A)
                 (A) (A) (A) (A) (A) (A) (A) (A) (A) (A) (A) (A)
                 (A) (A) (A) (A) (A) (A) (A) (A) (A) (A) (A) (A)
                 (A) (A) (A) (A) (A) (A) (A) (A) (A) (A) (A) (A)
 The electronic state is 1-A.
 Alpha  occ. eigenvalues -- -101.55968 -19.18430 -19.17640 -19.16216 -19.13138
 Alpha  occ. eigenvalues --  -19.13055 -14.30585 -10.32263 -10.28051 -10.25846
 Alpha  occ. eigenvalues --  -10.23818 -10.23769 -10.23277 -10.20835 -10.20666
 Alpha  occ. eigenvalues --  -10.19662 -10.19653 -10.18669 -10.18636 -10.16137
 Alpha  occ. eigenvalues --   -9.47419  -7.23855  -7.22915  -7.22888  -1.12721
 Alpha  occ. eigenvalues --   -1.10993  -1.07616  -1.04267  -1.03075  -0.92357
 Alpha  occ. eigenvalues --   -0.90117  -0.85026  -0.81594  -0.78737  -0.77057
 Alpha  occ. eigenvalues --   -0.74191  -0.71202  -0.68355  -0.64980  -0.62546
 Alpha  occ. eigenvalues --   -0.61689  -0.60006  -0.58980  -0.55369  -0.52990
 Alpha  occ. eigenvalues --   -0.52053  -0.51115  -0.50734  -0.50083  -0.48560
 Alpha  occ. eigenvalues --   -0.47804  -0.47152  -0.46226  -0.45563  -0.44731
 Alpha  occ. eigenvalues --   -0.43867  -0.43513  -0.42236  -0.41236  -0.40651
 Alpha  occ. eigenvalues --   -0.39940  -0.39349  -0.39046  -0.38887  -0.38519
 Alpha  occ. eigenvalues --   -0.37729  -0.36557  -0.35017  -0.34693  -0.34218
 Alpha  occ. eigenvalues --   -0.32622  -0.32383  -0.30390  -0.29761  -0.29267
 Alpha  occ. eigenvalues --   -0.28551  -0.25609  -0.23512
 Alpha virt. eigenvalues --   -0.06085  -0.02112  -0.01637  -0.00020   0.00849
 Alpha virt. eigenvalues --    0.01007   0.01384   0.01981   0.02758   0.03061
 Alpha virt. eigenvalues --    0.03283   0.03969   0.04540   0.04997   0.05302
 Alpha virt. eigenvalues --    0.05513   0.06131   0.06606   0.07008   0.07333
 Alpha virt. eigenvalues --    0.07607   0.07999   0.08158   0.08974   0.09120
 Alpha virt. eigenvalues --    0.09979   0.10322   0.10655   0.10959   0.11501
 Alpha virt. eigenvalues --    0.11933   0.12115   0.12792   0.13076   0.13249
 Alpha virt. eigenvalues --    0.13751   0.14191   0.14520   0.14710   0.15217
 Alpha virt. eigenvalues --    0.15363   0.15498   0.15825   0.16193   0.16488
 Alpha virt. eigenvalues --    0.16775   0.16996   0.17442   0.17884   0.18094
 Alpha virt. eigenvalues --    0.18487   0.18983   0.19148   0.19617   0.19866
 Alpha virt. eigenvalues --    0.20303   0.20685   0.20858   0.21275   0.21444
 Alpha virt. eigenvalues --    0.21836   0.22380   0.22873   0.23139   0.23273
 Alpha virt. eigenvalues --    0.23373   0.23795   0.23932   0.24253   0.24759
 Alpha virt. eigenvalues --    0.25210   0.25826   0.25953   0.26280   0.26519
 Alpha virt. eigenvalues --    0.26673   0.26914   0.27673   0.27719   0.28166
 Alpha virt. eigenvalues --    0.28570   0.28859   0.29121   0.29533   0.29969
 Alpha virt. eigenvalues --    0.30097   0.30629   0.30987   0.31456   0.31662
 Alpha virt. eigenvalues --    0.32271   0.32542   0.32920   0.33258   0.33879
 Alpha virt. eigenvalues --    0.34813   0.35159   0.35567   0.35674   0.35856
 Alpha virt. eigenvalues --    0.36434   0.36722   0.37100   0.37807   0.38294
 Alpha virt. eigenvalues --    0.38981   0.39659   0.39829   0.41138   0.41243
 Alpha virt. eigenvalues --    0.41759   0.42964   0.43573   0.43850   0.44396
 Alpha virt. eigenvalues --    0.44818   0.45531   0.45629   0.46626   0.47159
 Alpha virt. eigenvalues --    0.47527   0.48703   0.49426   0.49927   0.50482
 Alpha virt. eigenvalues --    0.51603   0.51766   0.52754   0.52775   0.53074
 Alpha virt. eigenvalues --    0.53897   0.54160   0.54967   0.55571   0.55756
 Alpha virt. eigenvalues --    0.56465   0.56689   0.58117   0.58474   0.59374
 Alpha virt. eigenvalues --    0.59581   0.60337   0.60841   0.61510   0.61857
 Alpha virt. eigenvalues --    0.63260   0.63438   0.64152   0.64979   0.65149
 Alpha virt. eigenvalues --    0.65595   0.66063   0.66405   0.66685   0.67227
 Alpha virt. eigenvalues --    0.67528   0.68055   0.68332   0.69430   0.70192
 Alpha virt. eigenvalues --    0.70875   0.71106   0.71906   0.72537   0.73235
 Alpha virt. eigenvalues --    0.73546   0.74078   0.74955   0.75465   0.75995
 Alpha virt. eigenvalues --    0.76220   0.77427   0.77767   0.78287   0.78299
 Alpha virt. eigenvalues --    0.79869   0.80134   0.80453   0.81504   0.82194
 Alpha virt. eigenvalues --    0.82937   0.83313   0.83792   0.83973   0.85211
 Alpha virt. eigenvalues --    0.86860   0.87566   0.88258   0.88733   0.89226
 Alpha virt. eigenvalues --    0.90356   0.91772   0.92208   0.92973   0.94493
 Alpha virt. eigenvalues --    0.95526   0.96741   0.97902   0.98600   0.99012
 Alpha virt. eigenvalues --    0.99449   1.00546   1.01332   1.02077   1.02539
 Alpha virt. eigenvalues --    1.03460   1.04406   1.04931   1.06085   1.06859
 Alpha virt. eigenvalues --    1.08105   1.08588   1.09394   1.09890   1.10537
 Alpha virt. eigenvalues --    1.11207   1.11545   1.12641   1.13054   1.13192
 Alpha virt. eigenvalues --    1.14205   1.14355   1.14988   1.16969   1.17807
 Alpha virt. eigenvalues --    1.18627   1.18678   1.19770   1.20093   1.21169
 Alpha virt. eigenvalues --    1.21273   1.22260   1.23033   1.23541   1.24147
 Alpha virt. eigenvalues --    1.25074   1.25246   1.26344   1.28151   1.28558
 Alpha virt. eigenvalues --    1.29359   1.30706   1.31464   1.32067   1.32664
 Alpha virt. eigenvalues --    1.33456   1.33921   1.34449   1.34844   1.36142
 Alpha virt. eigenvalues --    1.36378   1.36637   1.36999   1.39344   1.40555
 Alpha virt. eigenvalues --    1.40643   1.40982   1.41943   1.43164   1.45525
 Alpha virt. eigenvalues --    1.46961   1.47763   1.50832   1.51234   1.52736
 Alpha virt. eigenvalues --    1.53965   1.54349   1.55856   1.57468   1.57958
 Alpha virt. eigenvalues --    1.58454   1.59269   1.60871   1.60890   1.61952
 Alpha virt. eigenvalues --    1.64249   1.65432   1.66067   1.66969   1.68460
 Alpha virt. eigenvalues --    1.68986   1.71209   1.72273   1.72666   1.74161
 Alpha virt. eigenvalues --    1.74924   1.76431   1.78089   1.78826   1.79948
 Alpha virt. eigenvalues --    1.81920   1.83945   1.84409   1.86278   1.86743
 Alpha virt. eigenvalues --    1.88731   1.91169   1.92027   1.92426   1.93127
 Alpha virt. eigenvalues --    1.93577   1.95321   1.96451   1.97344   2.00333
 Alpha virt. eigenvalues --    2.00882   2.02689   2.05688   2.07064   2.07683
 Alpha virt. eigenvalues --    2.09430   2.12206   2.13092   2.14078   2.15234
 Alpha virt. eigenvalues --    2.16492   2.18212   2.19202   2.21417   2.22346
 Alpha virt. eigenvalues --    2.25234   2.27267   2.28073   2.28672   2.28784
 Alpha virt. eigenvalues --    2.30588   2.32084   2.33258   2.34167   2.35773
 Alpha virt. eigenvalues --    2.35996   2.36835   2.37521   2.38617   2.39759
 Alpha virt. eigenvalues --    2.41828   2.42897   2.43440   2.44007   2.45205
 Alpha virt. eigenvalues --    2.46897   2.47357   2.48659   2.49048   2.51303
 Alpha virt. eigenvalues --    2.51629   2.52507   2.55037   2.58000   2.60216
 Alpha virt. eigenvalues --    2.61600   2.62341   2.63143   2.63448   2.64498
 Alpha virt. eigenvalues --    2.64879   2.67196   2.70256   2.72126   2.72949
 Alpha virt. eigenvalues --    2.74188   2.75649   2.77688   2.78953   2.80500
 Alpha virt. eigenvalues --    2.81234   2.82370   2.84154   2.84676   2.84991
 Alpha virt. eigenvalues --    2.86396   2.86946   2.88481   2.89200   2.90158
 Alpha virt. eigenvalues --    2.92538   2.95416   2.97286   2.98191   2.99680
 Alpha virt. eigenvalues --    3.00850   3.03537   3.05452   3.07024   3.07838
 Alpha virt. eigenvalues --    3.09046   3.09454   3.10352   3.15271   3.15865
 Alpha virt. eigenvalues --    3.18599   3.20238   3.24010   3.24806   3.25610
 Alpha virt. eigenvalues --    3.27705   3.27807   3.29229   3.31180   3.32053
 Alpha virt. eigenvalues --    3.35263   3.35693   3.38089   3.38393   3.39133
 Alpha virt. eigenvalues --    3.40906   3.41121   3.42076   3.42202   3.42672
 Alpha virt. eigenvalues --    3.44129   3.45038   3.48008   3.48147   3.49900
 Alpha virt. eigenvalues --    3.50794   3.51030   3.53205   3.53903   3.54734
 Alpha virt. eigenvalues --    3.56255   3.56530   3.56923   3.57579   3.58407
 Alpha virt. eigenvalues --    3.58705   3.59235   3.59430   3.59937   3.61534
 Alpha virt. eigenvalues --    3.62932   3.64609   3.65923   3.66548   3.66929
 Alpha virt. eigenvalues --    3.68945   3.70490   3.71403   3.72269   3.74833
 Alpha virt. eigenvalues --    3.76645   3.77017   3.77856   3.79073   3.80071
 Alpha virt. eigenvalues --    3.80597   3.82445   3.83689   3.84215   3.84633
 Alpha virt. eigenvalues --    3.86120   3.89092   3.89988   3.93406   3.94294
 Alpha virt. eigenvalues --    3.96151   3.98429   4.00432   4.02865   4.06698
 Alpha virt. eigenvalues --    4.07237   4.07732   4.12109   4.14241   4.17082
 Alpha virt. eigenvalues --    4.19863   4.23302   4.24573   4.26433   4.30070
 Alpha virt. eigenvalues --    4.35794   4.39390   4.39883   4.42364   4.49217
 Alpha virt. eigenvalues --    4.56561   4.58498   4.61172   4.73737   4.79236
 Alpha virt. eigenvalues --    4.81720   4.99406   5.01792   5.06477   5.07950
 Alpha virt. eigenvalues --    5.09498   5.13709   5.16940   5.19980   5.24966
 Alpha virt. eigenvalues --    5.25601   5.28554   5.41915   5.44544   5.50419
 Alpha virt. eigenvalues --    5.55717   5.61081   5.63969   5.78032   5.81670
 Alpha virt. eigenvalues --    5.88036   6.02562   6.11822   6.75994   6.81624
 Alpha virt. eigenvalues --    6.83951   6.86495   6.91280   6.95615   6.95937
 Alpha virt. eigenvalues --    6.98807   6.99980   7.02912   7.04607   7.07717
 Alpha virt. eigenvalues --    7.08060   7.10929   7.13005   7.13726   7.20915
 Alpha virt. eigenvalues --    7.23665   7.30241   7.32294   7.33942   7.35803
 Alpha virt. eigenvalues --    7.39539   7.39913   7.53737   9.89831  23.66053
 Alpha virt. eigenvalues --   23.90108  23.94292  23.95813  23.98148  24.00506
 Alpha virt. eigenvalues --   24.02660  24.03896  24.08013  24.09639  24.13514
 Alpha virt. eigenvalues --   24.17016  24.32783  25.87435  26.28583  27.40465
 Alpha virt. eigenvalues --   35.77572  49.93095  49.99724  50.02808  50.03868
 Alpha virt. eigenvalues --   50.06405 215.90020
          Condensed to atoms (all electrons):
              1          2          3          4          5          6
     1  O    8.297952   0.409551  -0.022579  -0.040723  -0.001762   0.016086
     2  C    0.409551  10.128321  -0.112607  -0.595104  -0.114732   0.062226
     3  C   -0.022579  -0.112607   7.603775   0.219438  -0.121182   0.102593
     4  C   -0.040723  -0.595104   0.219438   6.356991   0.463270  -0.758772
     5  N   -0.001762  -0.114732  -0.121182   0.463270   7.099617  -0.167176
     6  C    0.016086   0.062226   0.102593  -0.758772  -0.167176   9.396196
     7  C    0.000060  -0.038325  -0.072685  -0.206358   0.005184  -0.966099
     8  O   -0.000001   0.001861   0.002594   0.033835  -0.003171  -0.177281
     9  C   -0.000093   0.011686   0.002745   0.088650  -0.064069  -0.160330
    10  C    0.000097   0.006565   0.017835  -0.052639   0.013307   0.108496
    11  O    0.000000   0.000227   0.004490  -0.007355   0.002376   0.004075
    12  O    0.000001   0.000014  -0.000816   0.007387   0.002216  -0.019429
    13  C   -0.025081  -0.216562  -0.108034   0.189990   0.238872  -2.205875
    14  C    0.005837   0.017095   0.020231  -0.045230   0.001208   0.350802
    15  O    0.012179  -0.076341   0.041707   0.195949  -0.068389  -0.330433
    16  C    0.020707  -0.066243   0.886849  -0.680092   0.078632  -0.007186
    17  C   -0.031833  -1.658513  -0.718832   0.480568   0.045487  -0.077981
    18  Cl   0.000007   0.039141   0.091960  -0.033116  -0.001591   0.004151
    19  C    0.005179   0.141703  -1.166727  -0.491029   0.016209  -0.057043
    20  C   -0.345761  -1.451829  -0.935502   0.234374  -0.052126   0.053417
    21  H    0.271879  -0.023635  -0.026245  -0.000465   0.001736  -0.026041
    22  H   -0.000017  -0.005031  -0.000693   0.008675  -0.040840   0.491818
    23  H   -0.000004  -0.001634  -0.006478   0.000418   0.013299  -0.059546
    24  H    0.000000  -0.000069  -0.000749   0.005003  -0.001342   0.021877
    25  H    0.000000  -0.000114  -0.000138  -0.001572  -0.001357   0.021962
    26  H    0.000000   0.000203  -0.002503   0.014798  -0.000531  -0.000977
    27  H    0.000000  -0.000033  -0.000499   0.001138   0.000262  -0.004296
    28  H    0.000332   0.003871  -0.002683  -0.019855   0.005215  -0.021865
    29  H   -0.000169  -0.004142   0.003614  -0.004234  -0.006790   0.055744
    30  H   -0.000195  -0.003104   0.004187  -0.004753   0.000216  -0.010747
    31  H   -0.000051   0.003391  -0.002114   0.002196   0.001844  -0.053746
    32  H   -0.000443   0.029617  -0.001011  -0.014192   0.008184   0.002341
    33  H   -0.000688   0.026907  -0.010764  -0.000508  -0.000057   0.000022
    34  H    0.002034  -0.181559   0.011841   0.012289   0.000054   0.000250
              7          8          9         10         11         12
     1  O    0.000060  -0.000001  -0.000093   0.000097   0.000000   0.000001
     2  C   -0.038325   0.001861   0.011686   0.006565   0.000227   0.000014
     3  C   -0.072685   0.002594   0.002745   0.017835   0.004490  -0.000816
     4  C   -0.206358   0.033835   0.088650  -0.052639  -0.007355   0.007387
     5  N    0.005184  -0.003171  -0.064069   0.013307   0.002376   0.002216
     6  C   -0.966099  -0.177281  -0.160330   0.108496   0.004075  -0.019429
     7  C    6.837549   0.228178  -0.242870   0.048248  -0.009917  -0.012401
     8  O    0.228178   8.167296   0.012048  -0.043727  -0.001456  -0.019091
     9  C   -0.242870   0.012048   5.924089  -0.002156   0.015186  -0.006139
    10  C    0.048248  -0.043727  -0.002156   4.858417   0.272247   0.375518
    11  O   -0.009917  -0.001456   0.015186   0.272247   7.953516  -0.085098
    12  O   -0.012401  -0.019091  -0.006139   0.375518  -0.085098   8.273933
    13  C    0.343265   0.095560   0.120024  -0.183016   0.000188   0.009879
    14  C   -0.330038  -0.032805  -0.006378   0.010403  -0.000370   0.002936
    15  O    0.037902  -0.002087   0.007923   0.000869   0.000005   0.000129
    16  C   -0.051239  -0.003151  -0.028055   0.000100  -0.003139   0.000881
    17  C   -0.003726  -0.000292   0.004496  -0.006675  -0.001130   0.000133
    18  Cl   0.001392   0.000000  -0.001146   0.000181   0.000021   0.000001
    19  C   -0.024760   0.000033   0.007755  -0.000999  -0.000097  -0.000019
    20  C    0.008054   0.000003  -0.000300   0.000847   0.000031   0.000018
    21  H    0.000688  -0.000001   0.000097  -0.000135   0.000000  -0.000001
    22  H   -0.104979   0.000019  -0.010040   0.001007  -0.000923  -0.001685
    23  H    0.450715  -0.059666  -0.028541   0.007558  -0.000895  -0.001268
    24  H    0.039451   0.268688  -0.032698   0.016770  -0.000459   0.016497
    25  H   -0.042978  -0.005121   0.432934  -0.052060   0.001980  -0.004003
    26  H   -0.097004   0.008102   0.474990  -0.045987  -0.006261   0.003252
    27  H    0.002664   0.000236  -0.014898   0.000924   0.274655   0.021526
    28  H    0.001630  -0.004061  -0.001794   0.000598   0.000003   0.000339
    29  H   -0.028674   0.000196  -0.003652  -0.000139   0.000003   0.000022
    30  H    0.013953   0.000184   0.000504  -0.000003   0.000000  -0.000009
    31  H    0.015730  -0.001831   0.005460  -0.001083  -0.000001   0.000039
    32  H   -0.002085   0.000006   0.000533   0.000186  -0.000029  -0.000004
    33  H    0.000005   0.000000  -0.000001   0.000000   0.000000   0.000000
    34  H    0.000006   0.000000  -0.000003   0.000000   0.000000   0.000000
             13         14         15         16         17         18
     1  O   -0.025081   0.005837   0.012179   0.020707  -0.031833   0.000007
     2  C   -0.216562   0.017095  -0.076341  -0.066243  -1.658513   0.039141
     3  C   -0.108034   0.020231   0.041707   0.886849  -0.718832   0.091960
     4  C    0.189990  -0.045230   0.195949  -0.680092   0.480568  -0.033116
     5  N    0.238872   0.001208  -0.068389   0.078632   0.045487  -0.001591
     6  C   -2.205875   0.350802  -0.330433  -0.007186  -0.077981   0.004151
     7  C    0.343265  -0.330038   0.037902  -0.051239  -0.003726   0.001392
     8  O    0.095560  -0.032805  -0.002087  -0.003151  -0.000292   0.000000
     9  C    0.120024  -0.006378   0.007923  -0.028055   0.004496  -0.001146
    10  C   -0.183016   0.010403   0.000869   0.000100  -0.006675   0.000181
    11  O    0.000188  -0.000370   0.000005  -0.003139  -0.001130   0.000021
    12  O    0.009879   0.002936   0.000129   0.000881   0.000133   0.000001
    13  C    7.418667  -0.259232   0.390641   0.004172   0.097013  -0.001445
    14  C   -0.259232   5.621142  -0.118878   0.002669  -0.009870  -0.000121
    15  O    0.390641  -0.118878   8.461495  -0.021046  -0.011403  -0.000242
    16  C    0.004172   0.002669  -0.021046   7.579944   0.123483   0.185828
    17  C    0.097013  -0.009870  -0.011403   0.123483  10.082902  -0.558482
    18  Cl  -0.001445  -0.000121  -0.000242   0.185828  -0.558482  17.084767
    19  C    0.002020   0.003127   0.003155  -0.451651  -2.574458   0.241713
    20  C   -0.026841  -0.001275   0.039753  -1.209233  -0.127939   0.040215
    21  H    0.040669  -0.009755   0.034264  -0.006648   0.005772   0.000061
    22  H   -0.048216   0.018178  -0.000789   0.014134   0.002088   0.000011
    23  H   -0.010748  -0.000631  -0.001599   0.007231   0.001388   0.000005
    24  H   -0.029291   0.001408  -0.000225   0.000572   0.000034   0.000000
    25  H    0.001353   0.000311   0.000061   0.000506   0.000016   0.000001
    26  H   -0.003815   0.000001  -0.000141   0.000061   0.000559  -0.000002
    27  H   -0.001047   0.000055  -0.000001   0.000350   0.000099   0.000000
    28  H    0.465632  -0.056342  -0.037545  -0.001858  -0.000174   0.000001
    29  H   -0.057867   0.436779  -0.009309  -0.000451  -0.000259   0.000001
    30  H   -0.016194   0.392819   0.000302   0.000228  -0.000013  -0.000001
    31  H   -0.006396   0.404213   0.006846  -0.001286  -0.000086   0.000000
    32  H    0.002397   0.000042   0.000547   0.404821  -0.104389  -0.011610
    33  H    0.000026   0.000003   0.000000   0.011815  -0.062784  -0.003473
    34  H   -0.000016  -0.000031  -0.000045  -0.022387   0.056871  -0.000911
             19         20         21         22         23         24
     1  O    0.005179  -0.345761   0.271879  -0.000017  -0.000004   0.000000
     2  C    0.141703  -1.451829  -0.023635  -0.005031  -0.001634  -0.000069
     3  C   -1.166727  -0.935502  -0.026245  -0.000693  -0.006478  -0.000749
     4  C   -0.491029   0.234374  -0.000465   0.008675   0.000418   0.005003
     5  N    0.016209  -0.052126   0.001736  -0.040840   0.013299  -0.001342
     6  C   -0.057043   0.053417  -0.026041   0.491818  -0.059546   0.021877
     7  C   -0.024760   0.008054   0.000688  -0.104979   0.450715   0.039451
     8  O    0.000033   0.000003  -0.000001   0.000019  -0.059666   0.268688
     9  C    0.007755  -0.000300   0.000097  -0.010040  -0.028541  -0.032698
    10  C   -0.000999   0.000847  -0.000135   0.001007   0.007558   0.016770
    11  O   -0.000097   0.000031   0.000000  -0.000923  -0.000895  -0.000459
    12  O   -0.000019   0.000018  -0.000001  -0.001685  -0.001268   0.016497
    13  C    0.002020  -0.026841   0.040669  -0.048216  -0.010748  -0.029291
    14  C    0.003127  -0.001275  -0.009755   0.018178  -0.000631   0.001408
    15  O    0.003155   0.039753   0.034264  -0.000789  -0.001599  -0.000225
    16  C   -0.451651  -1.209233  -0.006648   0.014134   0.007231   0.000572
    17  C   -2.574458  -0.127939   0.005772   0.002088   0.001388   0.000034
    18  Cl   0.241713   0.040215   0.000061   0.000011   0.000005   0.000000
    19  C   10.534822   0.143065  -0.003889   0.000245   0.000060   0.000003
    20  C    0.143065   9.097759   0.055221  -0.000581   0.000147   0.000000
    21  H   -0.003889   0.055221   0.293755   0.000019  -0.000001   0.000000
    22  H    0.000245  -0.000581   0.000019   0.558044   0.006889   0.001627
    23  H    0.000060   0.000147  -0.000001   0.006889   0.564337   0.008073
    24  H    0.000003   0.000000   0.000000   0.001627   0.008073   0.398254
    25  H   -0.000004  -0.000010   0.000000  -0.000351  -0.008488  -0.000285
    26  H   -0.000008   0.000065   0.000000   0.000669  -0.001607  -0.000373
    27  H    0.000001   0.000001   0.000000   0.000082   0.000037   0.000089
    28  H   -0.000022   0.001364  -0.000503  -0.011357  -0.000364   0.000068
    29  H   -0.000141  -0.000755  -0.000180  -0.000472  -0.001459  -0.000048
    30  H    0.000017  -0.001186   0.000182  -0.000035   0.000190  -0.000004
    31  H   -0.000010   0.000253  -0.000024  -0.000313  -0.002173  -0.000168
    32  H    0.020247  -0.004314   0.000029   0.000037   0.000017   0.000000
    33  H    0.417935  -0.041150   0.000018   0.000000   0.000000   0.000000
    34  H   -0.114350   0.586610   0.000924   0.000000   0.000000   0.000000
             25         26         27         28         29         30
     1  O    0.000000   0.000000   0.000000   0.000332  -0.000169  -0.000195
     2  C   -0.000114   0.000203  -0.000033   0.003871  -0.004142  -0.003104
     3  C   -0.000138  -0.002503  -0.000499  -0.002683   0.003614   0.004187
     4  C   -0.001572   0.014798   0.001138  -0.019855  -0.004234  -0.004753
     5  N   -0.001357  -0.000531   0.000262   0.005215  -0.006790   0.000216
     6  C    0.021962  -0.000977  -0.004296  -0.021865   0.055744  -0.010747
     7  C   -0.042978  -0.097004   0.002664   0.001630  -0.028674   0.013953
     8  O   -0.005121   0.008102   0.000236  -0.004061   0.000196   0.000184
     9  C    0.432934   0.474990  -0.014898  -0.001794  -0.003652   0.000504
    10  C   -0.052060  -0.045987   0.000924   0.000598  -0.000139  -0.000003
    11  O    0.001980  -0.006261   0.274655   0.000003   0.000003   0.000000
    12  O   -0.004003   0.003252   0.021526   0.000339   0.000022  -0.000009
    13  C    0.001353  -0.003815  -0.001047   0.465632  -0.057867  -0.016194
    14  C    0.000311   0.000001   0.000055  -0.056342   0.436779   0.392819
    15  O    0.000061  -0.000141  -0.000001  -0.037545  -0.009309   0.000302
    16  C    0.000506   0.000061   0.000350  -0.001858  -0.000451   0.000228
    17  C    0.000016   0.000559   0.000099  -0.000174  -0.000259  -0.000013
    18  Cl   0.000001  -0.000002   0.000000   0.000001   0.000001  -0.000001
    19  C   -0.000004  -0.000008   0.000001  -0.000022  -0.000141   0.000017
    20  C   -0.000010   0.000065   0.000001   0.001364  -0.000755  -0.001186
    21  H    0.000000   0.000000   0.000000  -0.000503  -0.000180   0.000182
    22  H   -0.000351   0.000669   0.000082  -0.011357  -0.000472  -0.000035
    23  H   -0.008488  -0.001607   0.000037  -0.000364  -0.001459   0.000190
    24  H   -0.000285  -0.000373   0.000089   0.000068  -0.000048  -0.000004
    25  H    0.504953  -0.026750  -0.000472   0.000013   0.000026  -0.000003
    26  H   -0.026750   0.497999   0.000581   0.000026   0.000046  -0.000002
    27  H   -0.000472   0.000581   0.369693   0.000000   0.000000   0.000000
    28  H    0.000013   0.000026   0.000000   0.544120   0.005312  -0.006521
    29  H    0.000026   0.000046   0.000000   0.005312   0.513486  -0.027903
    30  H   -0.000003  -0.000002   0.000000  -0.006521  -0.027903   0.528971
    31  H   -0.000025   0.000005   0.000000  -0.002106  -0.026970  -0.021978
    32  H   -0.000001  -0.000015   0.000000  -0.000003   0.000004   0.000001
    33  H    0.000000   0.000000   0.000000   0.000000   0.000000   0.000000
    34  H    0.000000   0.000000   0.000000   0.000000   0.000000   0.000000
             31         32         33         34
     1  O   -0.000051  -0.000443  -0.000688   0.002034
     2  C    0.003391   0.029617   0.026907  -0.181559
     3  C   -0.002114  -0.001011  -0.010764   0.011841
     4  C    0.002196  -0.014192  -0.000508   0.012289
     5  N    0.001844   0.008184  -0.000057   0.000054
     6  C   -0.053746   0.002341   0.000022   0.000250
     7  C    0.015730  -0.002085   0.000005   0.000006
     8  O   -0.001831   0.000006   0.000000   0.000000
     9  C    0.005460   0.000533  -0.000001  -0.000003
    10  C   -0.001083   0.000186   0.000000   0.000000
    11  O   -0.000001  -0.000029   0.000000   0.000000
    12  O    0.000039  -0.000004   0.000000   0.000000
    13  C   -0.006396   0.002397   0.000026  -0.000016
    14  C    0.404213   0.000042   0.000003  -0.000031
    15  O    0.006846   0.000547   0.000000  -0.000045
    16  C   -0.001286   0.404821   0.011815  -0.022387
    17  C   -0.000086  -0.104389  -0.062784   0.056871
    18  Cl   0.000000  -0.011610  -0.003473  -0.000911
    19  C   -0.000010   0.020247   0.417935  -0.114350
    20  C    0.000253  -0.004314  -0.041150   0.586610
    21  H   -0.000024   0.000029   0.000018   0.000924
    22  H   -0.000313   0.000037   0.000000   0.000000
    23  H   -0.002173   0.000017   0.000000   0.000000
    24  H   -0.000168   0.000000   0.000000   0.000000
    25  H   -0.000025  -0.000001   0.000000   0.000000
    26  H    0.000005  -0.000015   0.000000   0.000000
    27  H    0.000000   0.000000   0.000000   0.000000
    28  H   -0.002106  -0.000003   0.000000   0.000000
    29  H   -0.026970   0.000004   0.000000   0.000000
    30  H   -0.021978   0.000001   0.000000   0.000000
    31  H    0.513406  -0.000001   0.000000   0.000000
    32  H   -0.000001   0.497995  -0.000099   0.000044
    33  H    0.000000  -0.000099   0.516681  -0.004805
    34  H    0.000000   0.000044  -0.004805   0.518333
 Mulliken atomic charges:
              1
     1  O   -0.572501
     2  C   -0.332801
     3  C    0.298981
     4  C    0.641028
     5  N   -0.352074
     6  C    0.412767
     7  C    0.199465
     8  O   -0.465101
     9  C   -0.505958
    10  C    0.648448
    11  O   -0.411870
    12  O   -0.564758
    13  C   -0.220691
    14  C   -0.418304
    15  O   -0.555255
    16  C   -0.769321
    17  C    1.047932
    18  Cl  -0.077316
    19  C   -0.652084
    20  C   -0.062396
    21  H    0.392206
    22  H    0.122780
    23  H    0.124738
    24  H    0.287299
    25  H    0.179617
    26  H    0.184622
    27  H    0.348851
    28  H    0.138528
    29  H    0.158378
    30  H    0.150896
    31  H    0.166979
    32  H    0.171147
    33  H    0.150917
    34  H    0.134851
 Sum of Mulliken atomic charges =   0.00000
 Mulliken charges with hydrogens summed into heavy atoms:
              1
     1  O   -0.180295
     2  C   -0.332801
     3  C    0.298981
     4  C    0.641028
     5  N   -0.352074
     6  C    0.535547
     7  C    0.324204
     8  O   -0.177801
     9  C   -0.141720
    10  C    0.648448
    11  O   -0.063019
    12  O   -0.564758
    13  C   -0.082163
    14  C    0.057949
    15  O   -0.555255
    16  C   -0.598175
    17  C    1.047932
    18  Cl  -0.077316
    19  C   -0.501167
    20  C    0.072455
 Sum of Mulliken charges with hydrogens summed into heavy atoms =   0.00000
 Electronic spatial extent (au):  <R**2>=           7770.1103
 Charge=              0.0000 electrons
 Dipole moment (field-independent basis, Debye):
    X=              1.5582    Y=             -0.5800    Z=              0.0260  Tot=              1.6628
 Quadrupole moment (field-independent basis, Debye-Ang):
   XX=           -126.2107   YY=           -119.9579   ZZ=           -124.3213
   XY=             11.3713   XZ=             -0.6083   YZ=             -2.3196
 Traceless Quadrupole moment (field-independent basis, Debye-Ang):
   XX=             -2.7140   YY=              3.5387   ZZ=             -0.8247
   XY=             11.3713   XZ=             -0.6083   YZ=             -2.3196
 Octapole moment (field-independent basis, Debye-Ang**2):
  XXX=            -43.4124  YYY=             17.9527  ZZZ=             -0.0557  XYY=             77.8626
  XXY=             33.9760  XXZ=            -10.9698  XZZ=             23.4056  YZZ=              7.4381
  YYZ=            -22.5398  XYZ=             -0.2256
 Hexadecapole moment (field-independent basis, Debye-Ang**3):
 XXXX=          -6924.0106 YYYY=          -2491.2059 ZZZZ=           -402.0513 XXXY=            380.4589
 XXXZ=            -37.0335 YYYX=            126.8863 YYYZ=            -84.4400 ZZZX=              0.0034
 ZZZY=             -5.0359 XXYY=          -1568.3539 XXZZ=          -1300.0589 YYZZ=           -473.6450
 XXYZ=            -18.3048 YYXZ=           -108.1673 ZZXY=             36.2131
 N-N= 1.683738247753D+03 E-N=-6.647455266775D+03  KE= 1.390555777906D+03
 1\1\GINC-PROD2-0089\SP\RB3LYP\6-311+G(2d,p)\C13H14Cl1N1O5\YUHENG\26-Ma
 r-2019\0\\# b3lyp/6-311+G(2d,p) nmr guess=read geom=check integral(ult
 rafinegrid) scrf=(iefpcm,read,solvent=methanol)\\Candidate Structure: 
 1b, Conformer: 17, NMR calculation with methanol solvation\\0,1\O,0,-2
 .9510548633,2.6213434685,-2.4913861736\C,0,-2.4604893477,2.864610924,-
 1.2573649164\C,0,-1.0976625041,2.8139926331,-0.9090961404\C,0,-0.02893
 62635,2.4775590035,-1.8646561841\N,0,1.2003795662,2.3020667892,-1.5840
 406739\C,0,1.8894390563,2.0790201693,-2.86266972\C,0,2.9675155407,0.99
 93609853,-2.747669888\O,0,3.5764181878,0.7783606591,-4.0079925731\C,0,
 3.9902313749,1.3093551167,-1.653892189\C,0,4.8044166617,2.5504664998,-
 1.9166447518\O,0,5.4545259946,2.9710438185,-0.8314397637\O,0,4.8952896
 93,3.1077130567,-2.9943634561\C,0,0.7498873794,1.76006102,-3.859745926
 2\C,0,0.4469214704,0.2923388521,-4.0950062952\O,0,-0.3939227875,2.3560
 874131,-3.1737523313\C,0,-0.7150208417,3.0854886474,0.4143157377\C,0,-
 1.6672850941,3.3965692897,1.363979857\Cl,0,-1.1733277377,3.7338607305,
 3.0073385555\C,0,-3.0228441122,3.4487384833,1.0289455622\C,0,-3.407763
 0506,3.1840536625,-0.2737170457\H,0,-2.2340268455,2.4198091311,-3.1177
 412346\H,0,2.3766619359,3.0208926248,-3.1532616185\H,0,2.4875928107,0.
 0529774365,-2.4758055381\H,0,4.0740581004,1.5792600242,-4.2454546992\H
 ,0,4.6997386633,0.4762521688,-1.5766754903\H,0,3.496695064,1.407675996
 9,-0.6836232953\H,0,5.9975382573,3.754394217,-1.0648246726\H,0,0.86435
 42018,2.2988490228,-4.8016839545\H,0,0.2585847399,-0.2227276965,-3.147
 5558163\H,0,-0.4409162216,0.1962141167,-4.7242647047\H,0,1.2908937314,
 -0.1855266563,-4.5980958208\H,0,0.3391345776,3.0467406371,0.6711782156
 \H,0,-3.7646219111,3.695831194,1.782966661\H,0,-4.4542604266,3.2173485
 608,-0.5617157156\\Version=EM64L-G09RevB.01\State=1-A\HF=-1395.2508231
 \RMSD=4.017e-09\Dipole=0.3894437,-0.2028203,-0.4849565\Quadrupole=7.12
 88418,-0.6542429,-6.4745988,3.1056176,4.7823135,-1.1127077\PG=C01 [X(C
 13H14Cl1N1O5)]\\@


 CONFIDENCE IS WHAT YOU FEEL BEFORE YOU FULLY
 COMPREHEND THE SITUATION.
 Job cpu time:  0 days  2 hours 34 minutes 55.4 seconds.
 File lengths (MBytes):  RWF=    330 Int=      0 D2E=      0 Chk=     30 Scr=      1
 Normal termination of Gaussian 09 at Tue Mar 26 02:59:34 2019.
