 Entering Gaussian System, Link 0=g09
 Initial command:
 /home/yuheng/proj/yuheng/g09/l1.exe /home/yuheng/proj/yuheng/g09_scratch/Gau-175080.inp -scrdir=/home/yuheng/proj/yuheng/g09_scratch/
 Entering Link 1 = /home/yuheng/proj/yuheng/g09/l1.exe PID=    175081.
  
 Copyright (c) 1988,1990,1992,1993,1995,1998,2003,2009,2010,
            Gaussian, Inc.  All Rights Reserved.
  
 This is part of the Gaussian(R) 09 program.  It is based on
 the Gaussian(R) 03 system (copyright 2003, Gaussian, Inc.),
 the Gaussian(R) 98 system (copyright 1998, Gaussian, Inc.),
 the Gaussian(R) 94 system (copyright 1995, Gaussian, Inc.),
 the Gaussian 92(TM) system (copyright 1992, Gaussian, Inc.),
 the Gaussian 90(TM) system (copyright 1990, Gaussian, Inc.),
 the Gaussian 88(TM) system (copyright 1988, Gaussian, Inc.),
 the Gaussian 86(TM) system (copyright 1986, Carnegie Mellon
 University), and the Gaussian 82(TM) system (copyright 1983,
 Carnegie Mellon University). Gaussian is a federally registered
 trademark of Gaussian, Inc.
  
 This software contains proprietary and confidential information,
 including trade secrets, belonging to Gaussian, Inc.
  
 This software is provided under written license and may be
 used, copied, transmitted, or stored only in accord with that
 written license.
  
 The following legend is applicable only to US Government
 contracts under FAR:
  
                    RESTRICTED RIGHTS LEGEND
  
 Use, reproduction and disclosure by the US Government is
 subject to restrictions as set forth in subparagraphs (a)
 and (c) of the Commercial Computer Software - Restricted
 Rights clause in FAR 52.227-19.
  
 Gaussian, Inc.
 340 Quinnipiac St., Bldg. 40, Wallingford CT 06492
  
  
 ---------------------------------------------------------------
 Warning -- This program may not be used in any manner that
 competes with the business of Gaussian, Inc. or will provide
 assistance to any competitor of Gaussian, Inc.  The licensee
 of this program is prohibited from giving any competitor of
 Gaussian, Inc. access to this program.  By using this program,
 the user acknowledges that Gaussian, Inc. is engaged in the
 business of creating and licensing software in the field of
 computational chemistry and represents and warrants to the
 licensee that it is not a competitor of Gaussian, Inc. and that
 it will not use this program in any manner prohibited above.
 ---------------------------------------------------------------
  

 Cite this work as:
 Gaussian 09, Revision B.01,
 M. J. Frisch, G. W. Trucks, H. B. Schlegel, G. E. Scuseria, 
 M. A. Robb, J. R. Cheeseman, G. Scalmani, V. Barone, B. Mennucci, 
 G. A. Petersson, H. Nakatsuji, M. Caricato, X. Li, H. P. Hratchian, 
 A. F. Izmaylov, J. Bloino, G. Zheng, J. L. Sonnenberg, M. Hada, 
 M. Ehara, K. Toyota, R. Fukuda, J. Hasegawa, M. Ishida, T. Nakajima, 
 Y. Honda, O. Kitao, H. Nakai, T. Vreven, J. A. Montgomery, Jr., 
 J. E. Peralta, F. Ogliaro, M. Bearpark, J. J. Heyd, E. Brothers, 
 K. N. Kudin, V. N. Staroverov, T. Keith, R. Kobayashi, J. Normand, 
 K. Raghavachari, A. Rendell, J. C. Burant, S. S. Iyengar, J. Tomasi, 
 M. Cossi, N. Rega, J. M. Millam, M. Klene, J. E. Knox, J. B. Cross, 
 V. Bakken, C. Adamo, J. Jaramillo, R. Gomperts, R. E. Stratmann, 
 O. Yazyev, A. J. Austin, R. Cammi, C. Pomelli, J. W. Ochterski, 
 R. L. Martin, K. Morokuma, V. G. Zakrzewski, G. A. Voth, 
 P. Salvador, J. J. Dannenberg, S. Dapprich, A. D. Daniels, 
 O. Farkas, J. B. Foresman, J. V. Ortiz, J. Cioslowski, 
 and D. J. Fox, Gaussian, Inc., Wallingford CT, 2010.
 
 ******************************************
 Gaussian 09:  EM64L-G09RevB.01 12-Aug-2010
                26-Mar-2019 
 ******************************************
 %mem=16gb
 %nprocshared=20
 Will use up to   20 processors via shared memory.
 %chk=1b-conf-2.chk
 ----------------------------------------------------------------------
 # b3lyp/6-311+G(2d,p) nmr guess=read geom=check integral(ultrafinegrid
 ) scrf=(iefpcm,read,solvent=methanol)
 ----------------------------------------------------------------------
 1/29=2,38=1,40=2/1;
 2/12=2,40=1/2;
 3/5=4,6=6,7=112,11=2,14=-4,16=1,25=1,30=1,70=2203,72=3,74=-5,75=-5,116=-2/1,2,8,3;
 4/5=1/1;
 5/5=2,38=6,53=3/2;
 8/6=1,10=90,11=11/1;
 10/13=100,45=16/2;
 6/7=2,8=2,9=2,10=2,28=1/1;
 99/9=1/99;
 ----------------------------------------------------------------------
 Candidate Structure: 1b, Conformer: 2, NMR calculation with methanol s
 olvation
 ----------------------------------------------------------------------
 Redundant internal coordinates taken from checkpoint file:
 1b-conf-2.chk
 Charge =  0 Multiplicity = 1
 O,0,-1.0043902982,4.7177546827,0.5353349598
 C,0,-1.7210135776,3.6814987075,0.0501471534
 C,0,-1.2040854187,2.6602236632,-0.7691133915
 C,0,0.1998678046,2.6093588407,-1.2079726612
 N,0,0.6963261268,1.8016548111,-2.0574043672
 C,0,2.1434379651,2.0712885708,-2.0792182407
 C,0,2.7132103094,1.8111679092,-3.4738105543
 O,0,2.0989795208,2.6083923464,-4.4685205792
 C,0,4.2126365775,2.064822745,-3.5687506929
 C,0,5.0395976744,1.0565012855,-2.8114834995
 O,0,6.3302364193,1.4033307217,-2.778219335
 O,0,4.6158633125,0.040783407,-2.3028600918
 C,0,2.2648862096,3.482275263,-1.4583429439
 C,0,2.2099852999,4.6900073367,-2.379273932
 O,0,1.0536644588,3.5109563336,-0.6389033351
 C,0,-2.0557311539,1.6362427346,-1.2140416445
 C,0,-3.3882454536,1.6348536416,-0.8536000262
 Cl,0,-4.4364364824,0.3528373272,-1.4151494641
 C,0,-3.9116558501,2.6442593363,-0.041421903
 C,0,-3.0779970228,3.6554892902,0.4031488671
 H,0,-0.0720625473,4.6525671749,0.2642547132
 H,0,2.6211985734,1.3467848118,-1.4040392537
 H,0,2.5314237471,0.7471513539,-3.6810976041
 H,0,1.14572458,2.4147104365,-4.4654289214
 H,0,4.4899598747,3.0679809766,-3.2293414377
 H,0,4.5130063948,2.0049207643,-4.6217107124
 H,0,6.8347219067,0.7108603343,-2.3009055099
 H,0,3.1076595295,3.5481048845,-0.7662497021
 H,0,1.317750486,4.6583630824,-3.0080486423
 H,0,2.1900124897,5.5975527515,-1.7702091643
 H,0,3.0800279293,4.7300167563,-3.0370298028
 H,0,-1.6453028559,0.8515882423,-1.8422745775
 H,0,-4.9610582713,2.6328451405,0.2385635782
 H,0,-3.4586802578,4.4522323362,1.0351887187
 Recover connectivity data from disk.
                          Input orientation:                          
 ---------------------------------------------------------------------
 Center     Atomic      Atomic             Coordinates (Angstroms)
 Number     Number       Type             X           Y           Z
 ---------------------------------------------------------------------
      1          8           0       -1.004390    4.717755    0.535335
      2          6           0       -1.721014    3.681499    0.050147
      3          6           0       -1.204085    2.660224   -0.769113
      4          6           0        0.199868    2.609359   -1.207973
      5          7           0        0.696326    1.801655   -2.057404
      6          6           0        2.143438    2.071289   -2.079218
      7          6           0        2.713210    1.811168   -3.473811
      8          8           0        2.098980    2.608392   -4.468521
      9          6           0        4.212637    2.064823   -3.568751
     10          6           0        5.039598    1.056501   -2.811483
     11          8           0        6.330236    1.403331   -2.778219
     12          8           0        4.615863    0.040783   -2.302860
     13          6           0        2.264886    3.482275   -1.458343
     14          6           0        2.209985    4.690007   -2.379274
     15          8           0        1.053664    3.510956   -0.638903
     16          6           0       -2.055731    1.636243   -1.214042
     17          6           0       -3.388245    1.634854   -0.853600
     18         17           0       -4.436436    0.352837   -1.415149
     19          6           0       -3.911656    2.644259   -0.041422
     20          6           0       -3.077997    3.655489    0.403149
     21          1           0       -0.072063    4.652567    0.264255
     22          1           0        2.621199    1.346785   -1.404039
     23          1           0        2.531424    0.747151   -3.681098
     24          1           0        1.145725    2.414710   -4.465429
     25          1           0        4.489960    3.067981   -3.229341
     26          1           0        4.513006    2.004921   -4.621711
     27          1           0        6.834722    0.710860   -2.300906
     28          1           0        3.107660    3.548105   -0.766250
     29          1           0        1.317750    4.658363   -3.008049
     30          1           0        2.190012    5.597553   -1.770209
     31          1           0        3.080028    4.730017   -3.037030
     32          1           0       -1.645303    0.851588   -1.842275
     33          1           0       -4.961058    2.632845    0.238564
     34          1           0       -3.458680    4.452232    1.035189
 ---------------------------------------------------------------------
                    Distance matrix (angstroms):
                    1          2          3          4          5
     1  O    0.000000
     2  C    1.350105   0.000000
     3  C    2.444360   1.407624   0.000000
     4  C    2.989096   2.534193   1.471825   0.000000
     5  N    4.256568   3.717407   2.451203   1.272946   0.000000
     6  C    4.873243   4.696910   3.642682   2.196828   1.472179
     7  C    6.192096   5.964793   4.835441   3.476783   2.464573
     8  O    6.254509   6.013507   4.959691   3.773301   2.903746
     9  C    7.148352   7.135704   6.126447   4.687441   3.836387
    10  C    7.818936   7.796500   6.762158   5.329690   4.470783
    11  O    8.704125   8.832459   7.898246   6.442173   5.693784
    12  O    7.843256   7.677725   6.563966   5.224689   4.303915
    13  C    4.023597   4.266454   3.631056   2.255874   2.375656
    14  C    4.339116   4.729897   4.285851   3.121156   3.276789
    15  O    2.659095   2.864038   2.416223   1.365901   2.249788
    16  C    3.696127   2.427608   1.404207   2.456566   2.883130
    17  C    4.137171   2.790193   2.414348   3.734943   4.261536
    18  Cl   5.885222   4.538789   4.023616   5.160439   5.371854
    19  C    3.617212   2.425523   2.803699   4.273954   5.099771
    20  C    2.333608   1.402388   2.424107   3.799276   4.872016
    21  H    0.973123   1.925579   2.513714   2.533002   3.756091
    22  H    5.316907   5.140073   4.094026   2.737769   2.083009
    23  H    6.785718   6.373053   5.108182   3.875605   2.667572
    24  H    5.910554   5.496669   4.386870   3.397581   2.525149
    25  H    6.861663   7.050365   6.216200   4.764573   4.167574
    26  H    8.024728   7.968700   6.925104   5.533725   4.602611
    27  H    9.249386   9.356963   8.412421   6.987137   6.239313
    28  H    4.468910   4.899018   4.402214   3.087332   3.245258
    29  H    4.236913   4.420510   3.919828   2.947601   3.074195
    30  H    4.036556   4.720284   4.598912   3.634018   4.089306
    31  H    5.426271   5.803452   5.270779   4.017208   3.900898
    32  H    4.583780   3.405200   2.148839   2.626167   2.536165
    33  H    4.482203   3.410728   3.889860   5.359867   6.161846
    34  H    2.518709   2.140986   3.398529   4.670431   5.818399
                    6          7          8          9         10
     6  C    0.000000
     7  C    1.528787   0.000000
     8  O    2.449331   1.415024   0.000000
     9  C    2.549575   1.523691   2.360635   0.000000
    10  C    3.154956   2.533827   3.715020   1.507989   0.000000
    11  O    4.296982   3.705814   4.713049   2.355152   1.336842
    12  O    3.207157   2.850522   4.197309   2.421117   1.212407
    13  C    1.546324   2.656258   3.138848   3.202612   3.926117
    14  C    2.636693   3.120731   2.951338   3.509567   4.625568
    15  O    2.309709   3.698658   4.071029   4.544713   5.160632
    16  C    4.309387   5.280147   5.366407   6.709752   7.296000
    17  C    5.682617   6.642616   6.642670   8.082718   8.671582
    18  Cl   6.832921   7.581706   7.557927   9.076087   9.604172
    19  C    6.414442   7.507608   7.465134   8.875918   9.503639
    20  C    5.994599   7.209051   7.185448   8.453375   9.109552
    21  H    4.130776   5.459343   5.593857   6.304522   6.965696
    22  H    1.099558   2.123222   3.354909   2.781048   2.813151
    23  H    2.114211   1.099157   2.066703   2.139008   2.672613
    24  H    2.609094   1.950534   0.972737   3.214405   4.443255
    25  H    2.796845   2.190019   2.731954   1.094730   2.126678
    26  H    3.476137   2.143474   2.493024   1.096602   2.110384
    27  H    4.889586   4.424166   5.543143   3.211849   1.898059
    28  H    2.198771   3.240899   3.950608   3.357843   3.758119
    29  H    2.870094   3.204803   2.635465   3.926984   5.183068
    30  H    3.540084   4.184818   4.027934   4.450387   5.461276
    31  H    2.977153   2.974056   2.740969   2.944281   4.169592
    32  H    3.987276   4.751772   4.899304   6.226404   6.757903
    33  H    7.494086   8.564536   8.485362   9.948616  10.573588
    34  H    6.837555   8.086936   8.036053   9.259864   9.927165
                   11         12         13         14         15
    11  O    0.000000
    12  O    2.240887   0.000000
    13  C    4.753016   4.252549   0.000000
    14  C    5.285629   5.235396   1.519784   0.000000
    15  O    6.071324   5.244055   1.462656   2.399193   0.000000
    16  C    8.533777   6.945588   4.704812   5.373973   3.676095
    17  C    9.909927   8.288979   5.978008   6.557578   4.826636
    18  Cl  10.903336   9.101074   7.396146   7.994717   6.381025
    19  C   10.673627   9.198411   6.392152   6.864774   5.075683
    20  C   10.183721   8.920990   5.660526   6.064228   4.263495
    21  H    7.797667   7.059411   3.130217   3.492476   1.840171
    22  H    3.955822   2.547981   2.165693   3.506753   2.779611
    23  H    3.959386   2.596802   3.534485   4.164635   4.367761
    24  H    5.545154   4.728012   3.381536   3.265221   3.981523
    25  H    2.522140   3.168303   2.873853   2.924358   4.326052
    26  H    2.657573   3.040639   4.152531   4.188331   5.486159
    27  H    0.980739   2.317831   5.410550   6.101470   6.635014
    28  H    4.362692   4.115477   1.092517   2.170624   2.058274
    29  H    5.981059   5.718119   2.163755   1.091990   2.645587
    30  H    5.979050   6.086555   2.139454   1.093159   2.631544
    31  H    4.658077   4.988658   2.171075   1.091429   3.367977
    32  H    8.049201   6.330225   4.728371   5.466724   3.975521
    33  H   11.751852  10.241828   7.470964   7.906254   6.141491
    34  H   10.938957   9.787835   6.318048   6.621847   4.904064
                   16         17         18         19         20
    16  C    0.000000
    17  C    1.380404   0.000000
    18  Cl   2.712071   1.748602   0.000000
    19  C    2.415697   1.397316   2.722708   0.000000
    20  C    2.781670   2.399717   4.007378   1.383913   0.000000
    21  H    3.901091   4.620959   6.352624   4.343871   3.170031
    22  H    4.689729   6.041472   7.127290   6.798408   6.409124
    23  H    5.283828   6.620064   7.337648   7.639341   7.523636
    24  H    4.628915   5.848963   6.687006   6.723216   6.563719
    25  H    6.996955   8.352492   9.504938   8.996083   8.415113
    26  H    7.409214   8.761586   9.649038   9.610553   9.251861
    27  H    9.004319  10.366172  11.311576  11.150244  10.688533
    28  H    5.524159   6.772366   8.218527   7.114288   6.296139
    29  H    4.871555   5.994135   7.361083   6.340677   5.653726
    30  H    5.833321   6.903631   8.458306   6.995785   6.020550
    31  H    6.266637   7.495730   8.848019   7.887185   7.135174
    32  H    1.085730   2.151472   2.867336   3.404864   3.867351
    33  H    3.397676   2.159294   2.865036   1.086171   2.149141
    34  H    3.867441   3.392655   4.874957   2.152451   1.085907
                   21         22         23         24         25
    21  H    0.000000
    22  H    4.578762   0.000000
    23  H    6.131576   2.356399   0.000000
    24  H    5.372236   3.562246   2.305665   0.000000
    25  H    5.960552   3.128340   3.070211   3.624719   0.000000
    26  H    7.204550   3.790183   2.528519   3.395724   1.751948
    27  H    8.355882   4.354601   4.519361   6.320835   3.451944
    28  H    3.520285   2.342911   4.083347   4.337937   2.864977
    29  H    3.555219   3.903636   4.150130   2.680956   3.555446
    30  H    3.185753   4.288243   5.224409   4.299446   3.717198
    31  H    4.565102   3.784632   4.071733   3.338038   2.187980
    32  H    4.621687   4.317442   4.564781   4.136922   6.669168
    33  H    5.289822   7.864014   8.663537   7.711545  10.076579
    34  H    3.479030   7.249729   8.476575   7.457133   9.125966
                   26         27         28         29         30
    26  H    0.000000
    27  H    3.528611   0.000000
    28  H    4.384176   4.929109   0.000000
    29  H    4.455819   6.820543   3.076054   0.000000
    30  H    5.141436   6.762746   2.459725   1.781899   0.000000
    31  H    3.462772   5.549164   2.560102   1.763972   1.774706
    32  H    6.854211   8.493584   5.569532   4.962887   6.102378
    33  H   10.666511  12.218157   8.182393   7.353003   7.997654
    34  H   10.076588  11.449084   6.868730   6.261354   6.410128
                   31         32         33         34
    31  H    0.000000
    32  H    6.228836   0.000000
    33  H    8.932341   4.300814   0.000000
    34  H    7.708102   4.953057   2.490366   0.000000
 Stoichiometry    C13H14ClNO5
 Framework group  C1[X(C13H14ClNO5)]
 Deg. of freedom    96
 Full point group                 C1      NOp   1
 Largest Abelian subgroup         C1      NOp   1
 Largest concise Abelian subgroup C1      NOp   1
                         Standard orientation:                         
 ---------------------------------------------------------------------
 Center     Atomic      Atomic             Coordinates (Angstroms)
 Number     Number       Type             X           Y           Z
 ---------------------------------------------------------------------
      1          8           0        2.156049    2.835747   -0.453886
      2          6           0        2.663284    1.591112   -0.325907
      3          6           0        1.894476    0.418176   -0.205242
      4          6           0        0.422702    0.414501   -0.193569
      5          7           0       -0.327626   -0.583616    0.053740
      6          6           0       -1.708096   -0.119013   -0.160172
      7          6           0       -2.667151   -0.844998    0.783412
      8          8           0       -2.339960   -0.649203    2.146096
      9          6           0       -4.119450   -0.416941    0.612449
     10          6           0       -4.726574   -0.866723   -0.692590
     11          8           0       -5.938655   -0.335229   -0.881056
     12          8           0       -4.210161   -1.628760   -1.481607
     13          6           0       -1.593352    1.421520   -0.091547
     14          6           0       -1.764875    2.104997    1.254998
     15          8           0       -0.196186    1.596132   -0.487529
     16          6           0        2.542956   -0.820328   -0.073403
     17          6           0        3.921775   -0.884745   -0.058502
     18         17           0        4.715087   -2.434325    0.106019
     19          6           0        4.694299    0.273573   -0.176812
     20          6           0        4.062458    1.497642   -0.309663
     21          1           0        1.183465    2.813793   -0.477713
     22          1           0       -1.994942   -0.405922   -1.182146
     23          1           0       -2.591675   -1.911715    0.529320
     24          1           0       -1.434455   -0.974336    2.289505
     25          1           0       -4.250110    0.666242    0.702314
     26          1           0       -4.714521   -0.864046    1.417758
     27          1           0       -6.307350   -0.672269   -1.725045
     28          1           0       -2.195973    1.906441   -0.863099
     29          1           0       -1.095347    1.669228    1.999498
     30          1           0       -1.536389    3.168101    1.142745
     31          1           0       -2.786381    2.004695    1.626054
     32          1           0        1.939939   -1.718861    0.015023
     33          1           0        5.778673    0.211997   -0.166369
     34          1           0        4.638570    2.413358   -0.403212
 ---------------------------------------------------------------------
 Rotational constants (GHZ):      0.5988179      0.1379205      0.1224818
 Standard basis: 6-311+G(2d,p) (5D, 7F)
 There are   632 symmetry adapted basis functions of A   symmetry.
 Integral buffers will be    131072 words long.
 Raffenetti 2 integral format.
 Two-electron integral symmetry is turned on.
   632 basis functions,   969 primitive gaussians,   672 cartesian basis functions
    78 alpha electrons       78 beta electrons
       nuclear repulsion energy      1673.2802540289 Hartrees.
 NAtoms=   34 NActive=   34 NUniq=   34 SFac= 1.00D+00 NAtFMM=   50 NAOKFM=F Big=F
 Using the following non-standard input for PCM:
 radii=bondi
 --- end of non-standard input.
 ------------------------------------------------------------------------------
 Polarizable Continuum Model (PCM)
 =================================
 Model                : PCM.
 Atomic radii         : Bondi.
 Polarization charges : Total charges.
 Charge compensation  : None.
 Solution method      : Matrix inversion.
 Cavity type          : Scaled VdW (van der Waals Surface) (Alpha=1.100).
 Cavity algorithm     : GePol (No added spheres)
                        Default sphere list used, NSphG=   34.
                        Lebedev-Laikov grids with approx.  5.0 points / Ang**2.
                        Smoothing algorithm: Karplus/York (Gamma=1.0000).
                        Polarization charges: spherical gaussians, with
                                              point-specific exponents (IZeta= 3).
                        Self-potential: point-specific (ISelfS= 7).
                        Self-field    : sphere-specific E.n sum rule (ISelfD= 2).
 Solvent              : Methanol, Eps=  32.613000 Eps(inf)=   1.765709
 ------------------------------------------------------------------------------
 One-electron integrals computed using PRISM.
 NBasis=   632 RedAO= T  NBF=   632
 NBsUse=   630 1.00D-06 NBFU=   630
 Initial guess read from the checkpoint file:  1b-conf-2.chk
 B after Tr=     0.000000    0.000000    0.000000
         Rot=    1.000000    0.000000    0.000000    0.000000 Ang=   0.00 deg.
 Initial guess orbital symmetries:
       Occupied  (A) (A) (A) (A) (A) (A) (A) (A) (A) (A) (A) (A)
                 (A) (A) (A) (A) (A) (A) (A) (A) (A) (A) (A) (A)
                 (A) (A) (A) (A) (A) (A) (A) (A) (A) (A) (A) (A)
                 (A) (A) (A) (A) (A) (A) (A) (A) (A) (A) (A) (A)
                 (A) (A) (A) (A) (A) (A) (A) (A) (A) (A) (A) (A)
                 (A) (A) (A) (A) (A) (A) (A) (A) (A) (A) (A) (A)
                 (A) (A) (A) (A) (A) (A)
       Virtual   (A) (A) (A) (A) (A) (A) (A) (A) (A) (A) (A) (A)
                 (A) (A) (A) (A) (A) (A) (A) (A) (A) (A) (A) (A)
                 (A) (A) (A) (A) (A) (A) (A) (A) (A) (A) (A) (A)
                 (A) (A) (A) (A) (A) (A) (A) (A) (A) (A) (A) (A)
                 (A) (A) (A) (A) (A) (A) (A) (A) (A) (A) (A) (A)
                 (A) (A) (A) (A) (A) (A) (A) (A) (A) (A) (A) (A)
                 (A) (A) (A) (A) (A) (A) (A) (A) (A) (A) (A) (A)
                 (A) (A) (A) (A) (A) (A) (A) (A) (A) (A) (A) (A)
                 (A) (A) (A) (A) (A) (A) (A) (A) (A) (A) (A) (A)
                 (A) (A) (A) (A) (A) (A) (A) (A) (A) (A) (A) (A)
                 (A) (A) (A) (A) (A) (A) (A) (A) (A) (A) (A) (A)
                 (A) (A) (A) (A) (A) (A) (A) (A) (A) (A) (A) (A)
                 (A) (A) (A) (A) (A) (A) (A) (A) (A) (A) (A) (A)
                 (A) (A) (A) (A) (A) (A) (A) (A) (A) (A) (A) (A)
                 (A) (A) (A) (A) (A) (A) (A) (A) (A) (A) (A) (A)
                 (A) (A) (A) (A) (A) (A) (A) (A) (A) (A) (A) (A)
                 (A) (A) (A) (A) (A) (A) (A) (A) (A) (A) (A) (A)
                 (A) (A) (A) (A) (A) (A) (A) (A) (A) (A) (A) (A)
                 (A) (A) (A) (A) (A) (A) (A) (A) (A) (A) (A) (A)
                 (A) (A) (A) (A) (A) (A) (A) (A) (A) (A) (A) (A)
                 (A) (A) (A) (A) (A) (A) (A) (A) (A) (A) (A) (A)
                 (A) (A) (A) (A) (A) (A) (A) (A) (A) (A) (A) (A)
                 (A) (A) (A) (A) (A) (A) (A) (A) (A) (A) (A) (A)
                 (A) (A) (A) (A) (A) (A) (A) (A) (A) (A) (A) (A)
                 (A) (A) (A) (A) (A) (A) (A) (A) (A) (A) (A) (A)
                 (A) (A) (A) (A) (A) (A) (A) (A) (A) (A) (A) (A)
                 (A) (A) (A) (A) (A) (A) (A) (A) (A) (A) (A) (A)
                 (A) (A) (A) (A) (A) (A) (A) (A) (A) (A) (A) (A)
                 (A) (A) (A) (A) (A) (A) (A) (A) (A) (A) (A) (A)
                 (A) (A) (A) (A) (A) (A) (A) (A) (A) (A) (A) (A)
                 (A) (A) (A) (A) (A) (A) (A) (A) (A) (A) (A) (A)
                 (A) (A) (A) (A) (A) (A) (A) (A) (A) (A) (A) (A)
                 (A) (A) (A) (A) (A) (A) (A) (A) (A) (A) (A) (A)
                 (A) (A) (A) (A) (A) (A) (A) (A) (A) (A) (A) (A)
                 (A) (A) (A) (A) (A) (A) (A) (A) (A) (A) (A) (A)
                 (A) (A) (A) (A) (A) (A) (A) (A) (A) (A) (A) (A)
                 (A) (A) (A) (A) (A) (A) (A) (A) (A) (A) (A) (A)
                 (A) (A) (A) (A) (A) (A) (A) (A) (A) (A) (A) (A)
                 (A) (A) (A) (A) (A) (A) (A) (A) (A) (A) (A) (A)
                 (A) (A) (A) (A) (A) (A) (A) (A) (A) (A) (A) (A)
                 (A) (A) (A) (A) (A) (A) (A) (A) (A) (A) (A) (A)
                 (A) (A) (A) (A) (A) (A) (A) (A) (A) (A) (A) (A)
                 (A) (A) (A) (A) (A) (A) (A) (A) (A) (A) (A) (A)
                 (A) (A) (A) (A) (A) (A) (A) (A) (A) (A) (A) (A)
                 (A) (A) (A) (A) (A) (A) (A) (A) (A) (A) (A) (A)
                 (A) (A) (A) (A) (A) (A) (A) (A) (A) (A) (A) (A)
 Requested convergence on RMS density matrix=1.00D-08 within 128 cycles.
 Requested convergence on MAX density matrix=1.00D-06.
 Requested convergence on             energy=1.00D-06.
 No special actions if energy rises.
 Error on total polarization charges =  0.05123
 SCF Done:  E(RB3LYP) =  -1395.24690681     A.U. after   13 cycles
             Convg  =    0.4909D-08             -V/T =  2.0034
 Range of M.O.s used for correlation:     1   630
 NBasis=   632 NAE=    78 NBE=    78 NFC=     0 NFV=     0
 NROrb=    630 NOA=    78 NOB=    78 NVA=   552 NVB=   552

 **** Warning!!: The largest alpha MO coefficient is  0.12379283D+03

 NEqPCM:  Using equilibrium solvation (IEInf=0, Eps=  32.6130, EpsInf=   1.7657)
          Differentiating once with respect to magnetic field using GIAOs.
          Electric field/nuclear overlap derivatives assumed to be zero.
 FoFCou: FMM=F IPFlag=           0 FMFlag=    10101102 FMFlg1=           0
         NFxFlg=    40000000 DoJE=F BraDBF=F KetDBF=T FulRan=T
         Omega=  0.000000  0.000000  1.000000  0.000000  0.000000 ICntrl=    6100 IOpCl=  0
         NMat0=    1 NMatS0=    1 NMatT0=    0 NMatD0=    1 NMtDS0=    0 NMtDT0=    0
         I1Cent=           7 NGrid=        2501.
 Symmetry not used in FoFCou.
          There are     3 degrees of freedom in the 1st order CPHF.  IDoFFX=0.
      3 vectors produced by pass  0 Test12= 1.44D-12 3.33D-08 XBig12= 5.22D+02 7.05D+00.
 AX will form     3 AO Fock derivatives at one time.
      3 vectors produced by pass  1 Test12= 1.44D-12 3.33D-08 XBig12= 1.23D+00 3.12D-01.
      3 vectors produced by pass  2 Test12= 1.44D-12 3.33D-08 XBig12= 5.49D-03 2.86D-02.
      3 vectors produced by pass  3 Test12= 1.44D-12 3.33D-08 XBig12= 1.61D-05 1.36D-03.
      3 vectors produced by pass  4 Test12= 1.44D-12 3.33D-08 XBig12= 3.72D-08 8.72D-05.
      3 vectors produced by pass  5 Test12= 1.44D-12 3.33D-08 XBig12= 1.85D-10 5.89D-06.
      3 vectors produced by pass  6 Test12= 1.44D-12 3.33D-08 XBig12= 4.82D-13 1.32D-07.
 Inverted reduced A of dimension    21 with in-core refinement.
 Calculating GIAO nuclear magnetic shielding tensors.
 SCF GIAO Magnetic shielding tensor (ppm):
  1  O    Isotropic =   200.2679   Anisotropy =    93.4098
   XX=   143.8800   YX=   -20.2965   ZX=    -1.2301
   XY=   -18.5965   YY=   196.0302   ZY=     7.5992
   XZ=     1.1173   YZ=    12.8102   ZZ=   260.8936
   Eigenvalues:   137.3452   200.9175   262.5411
  2  C    Isotropic =    18.6588   Anisotropy =   143.7255
   XX=   -10.3070   YX=    28.5417   ZX=    -4.1105
   XY=    18.1536   YY=   -46.5977   ZY=    16.3365
   XZ=    -1.7512   YZ=    15.6884   ZZ=   112.8809
   Eigenvalues:   -59.4497     0.9502   114.4758
  3  C    Isotropic =    64.2952   Anisotropy =   136.7351
   XX=    -0.8840   YX=    -5.1453   ZX=     0.9815
   XY=    10.7724   YY=    39.3911   ZY=    12.6135
   XZ=    -1.2154   YZ=     9.7077   ZZ=   154.3786
   Eigenvalues:    -1.0848    38.5186   155.4520
  4  C    Isotropic =    10.8675   Anisotropy =    76.4883
   XX=   -21.6546   YX=    63.8566   ZX=   -15.0466
   XY=    67.3330   YY=    -2.0808   ZY=    14.4234
   XZ=   -23.6584   YZ=     8.7978   ZZ=    56.3378
   Eigenvalues:   -81.7725    52.5152    61.8597
  5  N    Isotropic =    16.3105   Anisotropy =   238.4465
   XX=  -130.2783   YX=    44.8573   ZX=   -31.2040
   XY=    21.1691   YY=    15.3570   ZY=    55.6419
   XZ=    12.0593   YZ=    29.8285   ZZ=   163.8528
   Eigenvalues:  -138.5673    12.2239   175.2749
  6  C    Isotropic =   109.8192   Anisotropy =    43.9636
   XX=   136.4542   YX=    -7.5164   ZX=    -5.9016
   XY=    -9.1808   YY=   112.5149   ZY=   -12.8256
   XZ=     5.1265   YZ=    -0.9289   ZZ=    80.4884
   Eigenvalues:    78.9976   111.3316   139.1282
  7  C    Isotropic =   109.8700   Anisotropy =    46.7841
   XX=    97.3173   YX=     9.0423   ZX=    14.6357
   XY=     4.3213   YY=    95.0545   ZY=     6.6237
   XZ=     4.7946   YZ=     7.7088   ZZ=   137.2382
   Eigenvalues:    89.3919    99.1587   141.0594
  8  O    Isotropic =   284.7637   Anisotropy =    65.0039
   XX=   320.5813   YX=    -9.1823   ZX=    30.1596
   XY=    -4.4880   YY=   264.0818   ZY=     4.6839
   XZ=     9.2563   YZ=    -8.5308   ZZ=   269.6279
   Eigenvalues:   262.6595   263.5319   328.0996
  9  C    Isotropic =   144.5167   Anisotropy =    44.4546
   XX=   160.6060   YX=    -0.4905   ZX=    15.1956
   XY=     2.0099   YY=   124.5153   ZY=     2.8323
   XZ=    21.8624   YZ=     3.7861   ZZ=   148.4288
   Eigenvalues:   123.9340   135.4630   174.1531
 10  C    Isotropic =     0.7269   Anisotropy =   109.1695
   XX=   -57.1835   YX=    28.4421   ZX=   -68.8583
   XY=    39.5014   YY=    51.0177   ZY=    -2.6303
   XZ=   -48.1782   YZ=   -13.0813   ZZ=     8.3465
   Eigenvalues:   -95.9783    24.6524    73.5066
 11  O    Isotropic =   116.9143   Anisotropy =   195.6435
   XX=   232.6739   YX=     4.6064   ZX=    78.5617
   XY=   -48.6564   YY=   103.3313   ZY=  -112.1305
   XZ=   -18.5680   YZ=   -73.4808   ZZ=    14.7378
   Eigenvalues:   -44.4845   147.8841   247.3433
 12  O    Isotropic =   -62.9745   Anisotropy =   507.3373
   XX=  -181.7392   YX=   214.9930   ZX=   -50.9549
   XY=   187.5862   YY=    70.7850   ZY=  -171.1343
   XZ=   -81.8478   YZ=  -169.3030   ZZ=   -77.9692
   Eigenvalues:  -297.0078  -167.1660   275.2504
 13  C    Isotropic =    96.9554   Anisotropy =    80.3656
   XX=   139.7924   YX=    16.1084   ZX=   -16.9369
   XY=    10.8798   YY=    80.9544   ZY=    -0.9684
   XZ=   -36.8930   YZ=    16.3642   ZZ=    70.1195
   Eigenvalues:    55.3855    84.9483   150.5325
 14  C    Isotropic =   164.4075   Anisotropy =    17.0376
   XX=   166.9589   YX=     9.4861   ZX=    -2.8144
   XY=     3.9081   YY=   158.1497   ZY=    10.3840
   XZ=   -12.7668   YZ=     7.6368   ZZ=   168.1138
   Eigenvalues:   147.7887   169.6679   175.7659
 15  O    Isotropic =   115.4502   Anisotropy =   128.0982
   XX=    52.6945   YX=   -56.5594   ZX=    13.6336
   XY=   -67.2648   YY=   174.8516   ZY=    12.6694
   XZ=   -20.5470   YZ=    -9.1549   ZZ=   118.8046
   Eigenvalues:    26.7350   118.7667   200.8490
 16  C    Isotropic =    46.9155   Anisotropy =   154.5138
   XX=    22.3285   YX=   -36.8437   ZX=     2.0292
   XY=   -32.5731   YY=   -30.0331   ZY=    17.9484
   XZ=     7.4976   YZ=    14.3715   ZZ=   148.4512
   Eigenvalues:   -48.7239    39.5457   149.9247
 17  C    Isotropic =    46.7821   Anisotropy =   100.8891
   XX=    50.2937   YX=    44.5078   ZX=    -4.9818
   XY=    42.2440   YY=   -22.5850   ZY=    14.4026
   XZ=    -4.8926   YZ=    13.2376   ZZ=   112.6375
   Eigenvalues:   -44.1581    70.4629   114.0415
 18  Cl   Isotropic =   709.0116   Anisotropy =   493.0252
   XX=   631.0902   YX=  -202.3767   ZX=    21.3306
   XY=  -203.0456   YY=   931.3354   ZY=   -39.9115
   XZ=    22.4370   YZ=   -38.2794   ZZ=   564.6091
   Eigenvalues:   528.8457   560.4940  1037.6950
 19  C    Isotropic =    42.4020   Anisotropy =   162.4347
   XX=   -55.7761   YX=     1.0256   ZX=    -1.0028
   XY=     1.1797   YY=    33.6877   ZY=    12.4105
   XZ=    -2.6822   YZ=    13.0311   ZZ=   149.2945
   Eigenvalues:   -55.8093    32.3236   150.6919
 20  C    Isotropic =    58.1978   Anisotropy =   147.1365
   XX=    24.5079   YX=   -33.8122   ZX=     2.6463
   XY=   -34.0769   YY=    -4.4340   ZY=    16.6760
   XZ=     3.0015   YZ=    17.0091   ZZ=   154.5195
   Eigenvalues:   -28.2015    46.5061   156.2888
 21  H    Isotropic =    23.3567   Anisotropy =    21.0202
   XX=    36.6534   YX=     4.5026   ZX=    -0.4665
   XY=     1.9686   YY=    22.4475   ZY=    -1.4481
   XZ=    -0.1043   YZ=    -1.7422   ZZ=    10.9691
   Eigenvalues:    10.7506    21.9492    37.3702
 22  H    Isotropic =    27.2526   Anisotropy =     6.8710
   XX=    29.1520   YX=     1.2818   ZX=     1.4446
   XY=     2.7539   YY=    24.7956   ZY=     1.6454
   XZ=     2.8311   YZ=     2.2911   ZZ=    27.8102
   Eigenvalues:    23.6367    26.2878    31.8333
 23  H    Isotropic =    26.8489   Anisotropy =     5.9743
   XX=    24.6928   YX=     1.4713   ZX=     1.1504
   XY=     0.3665   YY=    29.3553   ZY=     1.2930
   XZ=     1.8261   YZ=     2.8740   ZZ=    26.4986
   Eigenvalues:    23.8429    25.8720    30.8318
 24  H    Isotropic =    29.7042   Anisotropy =    16.4465
   XX=    37.7409   YX=    -5.6868   ZX=     2.4273
   XY=    -5.2094   YY=    22.7725   ZY=    -3.1205
   XZ=     3.3446   YZ=    -3.0576   ZZ=    28.5994
   Eigenvalues:    20.4380    28.0062    40.6686
 25  H    Isotropic =    28.8303   Anisotropy =     4.6141
   XX=    31.6818   YX=     0.0910   ZX=     1.5041
   XY=    -0.4070   YY=    30.4410   ZY=     1.0157
   XZ=     1.0963   YZ=     1.0437   ZZ=    24.3681
   Eigenvalues:    23.9760    30.6085    31.9064
 26  H    Isotropic =    28.7786   Anisotropy =     6.6944
   XX=    31.7851   YX=     1.9375   ZX=    -1.7036
   XY=     1.5541   YY=    25.4445   ZY=    -1.8644
   XZ=    -1.5184   YZ=    -1.6010   ZZ=    29.1061
   Eigenvalues:    24.5879    28.5063    33.2415
 27  H    Isotropic =    24.8366   Anisotropy =    12.2638
   XX=    26.9076   YX=     2.7868   ZX=     8.1583
   XY=     0.2790   YY=    21.1390   ZY=    -0.4377
   XZ=     4.1547   YZ=     1.3025   ZZ=    26.4632
   Eigenvalues:    19.9680    21.5294    33.0125
 28  H    Isotropic =    26.5769   Anisotropy =     3.8691
   XX=    27.7988   YX=    -1.0865   ZX=     2.0535
   XY=     0.0939   YY=    25.7372   ZY=    -1.5254
   XZ=     0.9417   YZ=    -1.4977   ZZ=    26.1948
   Eigenvalues:    24.3095    26.2650    29.1563
 29  H    Isotropic =    30.2554   Anisotropy =     3.6850
   XX=    28.6745   YX=    -0.4408   ZX=     1.9581
   XY=     0.2609   YY=    30.1421   ZY=     0.7090
   XZ=     1.2448   YZ=     0.5060   ZZ=    31.9496
   Eigenvalues:    27.9752    30.0789    32.7121
 30  H    Isotropic =    30.5971   Anisotropy =     9.3510
   XX=    27.7524   YX=     1.2545   ZX=    -1.1597
   XY=     0.6022   YY=    36.4780   ZY=     0.8761
   XZ=    -1.1506   YZ=     2.4292   ZZ=    27.5608
   Eigenvalues:    26.1652    28.7949    36.8311
 31  H    Isotropic =    30.5309   Anisotropy =     7.8049
   XX=    33.4762   YX=     0.8726   ZX=    -3.4136
   XY=    -0.0168   YY=    30.2611   ZY=     1.6863
   XZ=    -4.9045   YZ=     2.0586   ZZ=    27.8555
   Eigenvalues:    24.9909    30.8677    35.7342
 32  H    Isotropic =    23.3232   Anisotropy =    12.2053
   XX=    29.6171   YX=    -3.7517   ZX=     0.0691
   XY=    -4.4026   YY=    22.4399   ZY=    -0.4793
   XZ=    -0.2092   YZ=     0.0512   ZZ=    17.9126
   Eigenvalues:    17.8940    20.6155    31.4601
 33  H    Isotropic =    24.0621   Anisotropy =     7.1491
   XX=    23.2182   YX=     0.3332   ZX=    -0.0550
   XY=     1.0212   YY=    28.6537   ZY=    -0.9025
   XZ=    -0.2518   YZ=    -0.8370   ZZ=    20.3145
   Eigenvalues:    20.2224    23.1358    28.8282
 34  H    Isotropic =    24.5341   Anisotropy =     5.6768
   XX=    27.3805   YX=    -1.3241   ZX=     0.0905
   XY=    -2.1223   YY=    25.0787   ZY=    -0.4966
   XZ=     0.1767   YZ=    -0.4732   ZZ=    21.1430
   Eigenvalues:    21.0831    24.2005    28.3186
 End of Minotr Frequency-dependent properties file   721 does not exist.
 End of Minotr Frequency-dependent properties file   722 does not exist.

 **********************************************************************

            Population analysis using the SCF density.

 **********************************************************************

 Orbital symmetries:
       Occupied  (A) (A) (A) (A) (A) (A) (A) (A) (A) (A) (A) (A)
                 (A) (A) (A) (A) (A) (A) (A) (A) (A) (A) (A) (A)
                 (A) (A) (A) (A) (A) (A) (A) (A) (A) (A) (A) (A)
                 (A) (A) (A) (A) (A) (A) (A) (A) (A) (A) (A) (A)
                 (A) (A) (A) (A) (A) (A) (A) (A) (A) (A) (A) (A)
                 (A) (A) (A) (A) (A) (A) (A) (A) (A) (A) (A) (A)
                 (A) (A) (A) (A) (A) (A)
       Virtual   (A) (A) (A) (A) (A) (A) (A) (A) (A) (A) (A) (A)
                 (A) (A) (A) (A) (A) (A) (A) (A) (A) (A) (A) (A)
                 (A) (A) (A) (A) (A) (A) (A) (A) (A) (A) (A) (A)
                 (A) (A) (A) (A) (A) (A) (A) (A) (A) (A) (A) (A)
                 (A) (A) (A) (A) (A) (A) (A) (A) (A) (A) (A) (A)
                 (A) (A) (A) (A) (A) (A) (A) (A) (A) (A) (A) (A)
                 (A) (A) (A) (A) (A) (A) (A) (A) (A) (A) (A) (A)
                 (A) (A) (A) (A) (A) (A) (A) (A) (A) (A) (A) (A)
                 (A) (A) (A) (A) (A) (A) (A) (A) (A) (A) (A) (A)
                 (A) (A) (A) (A) (A) (A) (A) (A) (A) (A) (A) (A)
                 (A) (A) (A) (A) (A) (A) (A) (A) (A) (A) (A) (A)
                 (A) (A) (A) (A) (A) (A) (A) (A) (A) (A) (A) (A)
                 (A) (A) (A) (A) (A) (A) (A) (A) (A) (A) (A) (A)
                 (A) (A) (A) (A) (A) (A) (A) (A) (A) (A) (A) (A)
                 (A) (A) (A) (A) (A) (A) (A) (A) (A) (A) (A) (A)
                 (A) (A) (A) (A) (A) (A) (A) (A) (A) (A) (A) (A)
                 (A) (A) (A) (A) (A) (A) (A) (A) (A) (A) (A) (A)
                 (A) (A) (A) (A) (A) (A) (A) (A) (A) (A) (A) (A)
                 (A) (A) (A) (A) (A) (A) (A) (A) (A) (A) (A) (A)
                 (A) (A) (A) (A) (A) (A) (A) (A) (A) (A) (A) (A)
                 (A) (A) (A) (A) (A) (A) (A) (A) (A) (A) (A) (A)
                 (A) (A) (A) (A) (A) (A) (A) (A) (A) (A) (A) (A)
                 (A) (A) (A) (A) (A) (A) (A) (A) (A) (A) (A) (A)
                 (A) (A) (A) (A) (A) (A) (A) (A) (A) (A) (A) (A)
                 (A) (A) (A) (A) (A) (A) (A) (A) (A) (A) (A) (A)
                 (A) (A) (A) (A) (A) (A) (A) (A) (A) (A) (A) (A)
                 (A) (A) (A) (A) (A) (A) (A) (A) (A) (A) (A) (A)
                 (A) (A) (A) (A) (A) (A) (A) (A) (A) (A) (A) (A)
                 (A) (A) (A) (A) (A) (A) (A) (A) (A) (A) (A) (A)
                 (A) (A) (A) (A) (A) (A) (A) (A) (A) (A) (A) (A)
                 (A) (A) (A) (A) (A) (A) (A) (A) (A) (A) (A) (A)
                 (A) (A) (A) (A) (A) (A) (A) (A) (A) (A) (A) (A)
                 (A) (A) (A) (A) (A) (A) (A) (A) (A) (A) (A) (A)
                 (A) (A) (A) (A) (A) (A) (A) (A) (A) (A) (A) (A)
                 (A) (A) (A) (A) (A) (A) (A) (A) (A) (A) (A) (A)
                 (A) (A) (A) (A) (A) (A) (A) (A) (A) (A) (A) (A)
                 (A) (A) (A) (A) (A) (A) (A) (A) (A) (A) (A) (A)
                 (A) (A) (A) (A) (A) (A) (A) (A) (A) (A) (A) (A)
                 (A) (A) (A) (A) (A) (A) (A) (A) (A) (A) (A) (A)
                 (A) (A) (A) (A) (A) (A) (A) (A) (A) (A) (A) (A)
                 (A) (A) (A) (A) (A) (A) (A) (A) (A) (A) (A) (A)
                 (A) (A) (A) (A) (A) (A) (A) (A) (A) (A) (A) (A)
                 (A) (A) (A) (A) (A) (A) (A) (A) (A) (A) (A) (A)
                 (A) (A) (A) (A) (A) (A) (A) (A) (A) (A) (A) (A)
                 (A) (A) (A) (A) (A) (A) (A) (A) (A) (A) (A) (A)
                 (A) (A) (A) (A) (A) (A) (A) (A) (A) (A) (A) (A)
 The electronic state is 1-A.
 Alpha  occ. eigenvalues -- -101.55973 -19.18237 -19.17689 -19.16217 -19.13208
 Alpha  occ. eigenvalues --  -19.12871 -14.30677 -10.32147 -10.28086 -10.25865
 Alpha  occ. eigenvalues --  -10.23961 -10.23830 -10.23331 -10.20914 -10.20687
 Alpha  occ. eigenvalues --  -10.19684 -10.19678 -10.18945 -10.18649 -10.16120
 Alpha  occ. eigenvalues --   -9.47425  -7.23860  -7.22921  -7.22893  -1.12480
 Alpha  occ. eigenvalues --   -1.11056  -1.07623  -1.03846  -1.03476  -0.92285
 Alpha  occ. eigenvalues --   -0.90123  -0.85029  -0.81774  -0.79106  -0.76849
 Alpha  occ. eigenvalues --   -0.74188  -0.71650  -0.68072  -0.64828  -0.62731
 Alpha  occ. eigenvalues --   -0.61636  -0.59204  -0.58525  -0.55839  -0.53444
 Alpha  occ. eigenvalues --   -0.52010  -0.51087  -0.50723  -0.50313  -0.48939
 Alpha  occ. eigenvalues --   -0.47896  -0.47224  -0.46237  -0.45723  -0.44655
 Alpha  occ. eigenvalues --   -0.43858  -0.42990  -0.41978  -0.40937  -0.40705
 Alpha  occ. eigenvalues --   -0.40289  -0.39289  -0.39040  -0.38804  -0.38510
 Alpha  occ. eigenvalues --   -0.37256  -0.36591  -0.35789  -0.34551  -0.34097
 Alpha  occ. eigenvalues --   -0.32639  -0.32386  -0.30419  -0.30125  -0.28940
 Alpha  occ. eigenvalues --   -0.28186  -0.25812  -0.23546
 Alpha virt. eigenvalues --   -0.06149  -0.02127  -0.01305  -0.00223   0.00712
 Alpha virt. eigenvalues --    0.00939   0.01621   0.01848   0.02568   0.03076
 Alpha virt. eigenvalues --    0.03314   0.03786   0.04506   0.04841   0.05099
 Alpha virt. eigenvalues --    0.05429   0.05798   0.06426   0.07097   0.07383
 Alpha virt. eigenvalues --    0.07861   0.08281   0.08441   0.08942   0.09167
 Alpha virt. eigenvalues --    0.09721   0.10270   0.10711   0.10907   0.11407
 Alpha virt. eigenvalues --    0.11798   0.12325   0.12440   0.13076   0.13248
 Alpha virt. eigenvalues --    0.13495   0.13859   0.14011   0.14760   0.15144
 Alpha virt. eigenvalues --    0.15428   0.15658   0.16074   0.16266   0.16556
 Alpha virt. eigenvalues --    0.16940   0.17304   0.17622   0.17727   0.17861
 Alpha virt. eigenvalues --    0.18584   0.18906   0.19174   0.19951   0.20023
 Alpha virt. eigenvalues --    0.20204   0.20420   0.20783   0.20968   0.21145
 Alpha virt. eigenvalues --    0.21784   0.21975   0.22283   0.22784   0.23101
 Alpha virt. eigenvalues --    0.23373   0.23645   0.24162   0.24341   0.24884
 Alpha virt. eigenvalues --    0.25074   0.25421   0.26019   0.26393   0.26635
 Alpha virt. eigenvalues --    0.27101   0.27471   0.27606   0.28055   0.28287
 Alpha virt. eigenvalues --    0.28411   0.28605   0.29080   0.29478   0.29763
 Alpha virt. eigenvalues --    0.29937   0.30394   0.30859   0.31398   0.31824
 Alpha virt. eigenvalues --    0.32047   0.32346   0.32793   0.33164   0.33694
 Alpha virt. eigenvalues --    0.34428   0.34685   0.35322   0.35850   0.36263
 Alpha virt. eigenvalues --    0.36690   0.36806   0.37328   0.38057   0.38404
 Alpha virt. eigenvalues --    0.38592   0.38864   0.39801   0.40558   0.41606
 Alpha virt. eigenvalues --    0.42525   0.42644   0.42873   0.43598   0.44945
 Alpha virt. eigenvalues --    0.45470   0.45638   0.45816   0.46138   0.47744
 Alpha virt. eigenvalues --    0.48571   0.48777   0.50281   0.50332   0.50733
 Alpha virt. eigenvalues --    0.51166   0.52093   0.52403   0.52701   0.52965
 Alpha virt. eigenvalues --    0.53817   0.54359   0.54621   0.54930   0.56340
 Alpha virt. eigenvalues --    0.56851   0.57430   0.58596   0.59473   0.59840
 Alpha virt. eigenvalues --    0.60135   0.60540   0.61420   0.61477   0.62572
 Alpha virt. eigenvalues --    0.62795   0.63403   0.63995   0.64581   0.64800
 Alpha virt. eigenvalues --    0.65023   0.65383   0.66125   0.66793   0.67089
 Alpha virt. eigenvalues --    0.67310   0.67708   0.68961   0.70024   0.70371
 Alpha virt. eigenvalues --    0.70942   0.71108   0.71379   0.72560   0.72672
 Alpha virt. eigenvalues --    0.73385   0.73737   0.74600   0.75014   0.75952
 Alpha virt. eigenvalues --    0.76291   0.77066   0.77932   0.78061   0.78924
 Alpha virt. eigenvalues --    0.79626   0.80234   0.80964   0.81754   0.82288
 Alpha virt. eigenvalues --    0.82587   0.83257   0.83958   0.84347   0.85251
 Alpha virt. eigenvalues --    0.86362   0.87103   0.88178   0.89047   0.89946
 Alpha virt. eigenvalues --    0.90151   0.91408   0.92994   0.93617   0.94234
 Alpha virt. eigenvalues --    0.94867   0.95518   0.96438   0.97626   0.98731
 Alpha virt. eigenvalues --    0.99494   1.00112   1.01567   1.02017   1.02901
 Alpha virt. eigenvalues --    1.03290   1.04567   1.05735   1.06543   1.06792
 Alpha virt. eigenvalues --    1.07871   1.08617   1.09259   1.10498   1.10664
 Alpha virt. eigenvalues --    1.11136   1.11491   1.12341   1.12832   1.13812
 Alpha virt. eigenvalues --    1.14321   1.15000   1.16316   1.16444   1.17246
 Alpha virt. eigenvalues --    1.18150   1.18982   1.19625   1.20006   1.20375
 Alpha virt. eigenvalues --    1.21628   1.22201   1.22660   1.23063   1.23962
 Alpha virt. eigenvalues --    1.24612   1.25966   1.26675   1.27333   1.28655
 Alpha virt. eigenvalues --    1.29977   1.30844   1.31344   1.32342   1.32570
 Alpha virt. eigenvalues --    1.33695   1.34126   1.34558   1.35375   1.36074
 Alpha virt. eigenvalues --    1.37067   1.37394   1.37771   1.39171   1.40030
 Alpha virt. eigenvalues --    1.40995   1.42211   1.44433   1.45374   1.47577
 Alpha virt. eigenvalues --    1.48497   1.48684   1.50716   1.51678   1.52432
 Alpha virt. eigenvalues --    1.53636   1.54431   1.54730   1.55864   1.56257
 Alpha virt. eigenvalues --    1.58733   1.59105   1.60357   1.61286   1.62048
 Alpha virt. eigenvalues --    1.62905   1.63462   1.65800   1.66811   1.68492
 Alpha virt. eigenvalues --    1.69507   1.70782   1.71805   1.72846   1.74086
 Alpha virt. eigenvalues --    1.74816   1.75020   1.76324   1.77644   1.78659
 Alpha virt. eigenvalues --    1.79642   1.81775   1.82884   1.86808   1.87227
 Alpha virt. eigenvalues --    1.90701   1.91182   1.91334   1.92437   1.94467
 Alpha virt. eigenvalues --    1.94874   1.96046   1.96572   1.97449   1.99834
 Alpha virt. eigenvalues --    2.03092   2.03748   2.05952   2.07094   2.09200
 Alpha virt. eigenvalues --    2.10917   2.11520   2.13040   2.14056   2.15052
 Alpha virt. eigenvalues --    2.16538   2.16812   2.19299   2.20863   2.22234
 Alpha virt. eigenvalues --    2.23793   2.26558   2.27356   2.27493   2.28626
 Alpha virt. eigenvalues --    2.29491   2.30476   2.32280   2.33700   2.34843
 Alpha virt. eigenvalues --    2.36020   2.36998   2.37439   2.39029   2.39919
 Alpha virt. eigenvalues --    2.41507   2.41689   2.43032   2.44185   2.45366
 Alpha virt. eigenvalues --    2.46624   2.47375   2.48987   2.50337   2.50537
 Alpha virt. eigenvalues --    2.51515   2.52539   2.53647   2.54408   2.59262
 Alpha virt. eigenvalues --    2.60484   2.61562   2.62722   2.63898   2.64485
 Alpha virt. eigenvalues --    2.64885   2.67257   2.68931   2.71532   2.73058
 Alpha virt. eigenvalues --    2.74386   2.76702   2.77935   2.79114   2.81157
 Alpha virt. eigenvalues --    2.81398   2.81995   2.84594   2.84977   2.85541
 Alpha virt. eigenvalues --    2.87066   2.88887   2.89185   2.90078   2.92846
 Alpha virt. eigenvalues --    2.93472   2.95521   2.97302   2.99708   3.00645
 Alpha virt. eigenvalues --    3.01678   3.03624   3.05280   3.06491   3.07710
 Alpha virt. eigenvalues --    3.08826   3.09247   3.10377   3.14918   3.15152
 Alpha virt. eigenvalues --    3.18341   3.18536   3.23555   3.24797   3.25704
 Alpha virt. eigenvalues --    3.27020   3.27956   3.30717   3.31510   3.32164
 Alpha virt. eigenvalues --    3.34333   3.35660   3.36069   3.36303   3.38910
 Alpha virt. eigenvalues --    3.40044   3.40255   3.41516   3.42248   3.42624
 Alpha virt. eigenvalues --    3.43732   3.46145   3.47078   3.49284   3.49982
 Alpha virt. eigenvalues --    3.51060   3.51338   3.51625   3.53712   3.55428
 Alpha virt. eigenvalues --    3.55849   3.56567   3.57190   3.58330   3.58962
 Alpha virt. eigenvalues --    3.59293   3.60240   3.60769   3.61530   3.62012
 Alpha virt. eigenvalues --    3.64246   3.65480   3.66317   3.66403   3.66831
 Alpha virt. eigenvalues --    3.68183   3.69236   3.71213   3.72247   3.73697
 Alpha virt. eigenvalues --    3.74975   3.76037   3.76811   3.77543   3.78525
 Alpha virt. eigenvalues --    3.81298   3.82504   3.82741   3.84360   3.85863
 Alpha virt. eigenvalues --    3.86853   3.87352   3.89042   3.92110   3.92612
 Alpha virt. eigenvalues --    3.94593   3.98022   3.98469   4.02692   4.05665
 Alpha virt. eigenvalues --    4.07345   4.10197   4.11937   4.14412   4.15401
 Alpha virt. eigenvalues --    4.19349   4.23149   4.25142   4.25939   4.30158
 Alpha virt. eigenvalues --    4.34607   4.37965   4.39713   4.40848   4.51777
 Alpha virt. eigenvalues --    4.55629   4.58487   4.59736   4.73525   4.77642
 Alpha virt. eigenvalues --    4.82067   4.99216   5.01864   5.07057   5.07380
 Alpha virt. eigenvalues --    5.09754   5.14684   5.16381   5.20453   5.24629
 Alpha virt. eigenvalues --    5.25506   5.26465   5.43138   5.45746   5.49140
 Alpha virt. eigenvalues --    5.55481   5.60890   5.64733   5.78496   5.83779
 Alpha virt. eigenvalues --    5.88262   6.02467   6.11775   6.76025   6.82018
 Alpha virt. eigenvalues --    6.84017   6.87149   6.91002   6.95689   6.95978
 Alpha virt. eigenvalues --    6.98920   6.99808   7.03878   7.05058   7.08194
 Alpha virt. eigenvalues --    7.08714   7.09585   7.13313   7.14144   7.20565
 Alpha virt. eigenvalues --    7.21907   7.29531   7.32381   7.33780   7.34898
 Alpha virt. eigenvalues --    7.38751   7.40134   7.53482   9.89818  23.66204
 Alpha virt. eigenvalues --   23.90168  23.94804  23.96878  23.98108  24.00552
 Alpha virt. eigenvalues --   24.03295  24.05058  24.07506  24.07757  24.13334
 Alpha virt. eigenvalues --   24.17025  24.30464  25.87442  26.28294  27.40528
 Alpha virt. eigenvalues --   35.77053  49.92460  49.99674  50.01564  50.03084
 Alpha virt. eigenvalues --   50.06213 215.90006
          Condensed to atoms (all electrons):
              1          2          3          4          5          6
     1  O    8.299092   0.407235   0.000218  -0.041914  -0.000788   0.005475
     2  C    0.407235   9.927915   0.006694  -0.306354  -0.087277  -0.126277
     3  C    0.000218   0.006694   7.692114  -0.161114  -0.126752   0.426949
     4  C   -0.041914  -0.306354  -0.161114   9.455690   0.789092  -5.251685
     5  N   -0.000788  -0.087277  -0.126752   0.789092   7.263848  -0.882264
     6  C    0.005475  -0.126277   0.426949  -5.251685  -0.882264  16.760073
     7  C   -0.001907   0.145648  -0.024708   0.534397   0.087015  -2.556213
     8  O    0.000029   0.001259  -0.006822   0.041665   0.015741  -0.048953
     9  C   -0.000154  -0.008363  -0.009409   0.030858   0.078264  -0.243919
    10  C    0.000054   0.000319   0.013293  -0.179925  -0.045001   0.371816
    11  O    0.000000   0.000011  -0.000004  -0.000784  -0.000168   0.016012
    12  O    0.000001  -0.000702  -0.001540   0.010665   0.001066  -0.011855
    13  C   -0.019989  -0.078532  -0.146995   0.695353   0.375174  -3.388859
    14  C    0.009506  -0.044869   0.039029  -0.262361  -0.020096   0.800724
    15  O    0.012208  -0.049545   0.026028   0.369797  -0.052972  -0.595064
    16  C    0.025186  -0.223601   1.008150  -0.735912   0.070239   0.197087
    17  C   -0.037274  -1.313350  -0.911822   0.458008   0.019240  -0.177131
    18  Cl   0.000008   0.059228   0.109209  -0.038606  -0.001922  -0.001615
    19  C    0.012075  -0.198530  -1.079023  -0.361127   0.012076  -0.080387
    20  C   -0.370683  -1.674969  -1.037462   0.151191  -0.048775   0.155847
    21  H    0.272320  -0.000605  -0.043775   0.000626  -0.000404  -0.023927
    22  H   -0.000032  -0.003642   0.000018   0.026011  -0.029615   0.441839
    23  H    0.000000  -0.000672  -0.000724  -0.002515  -0.017223   0.059201
    24  H   -0.000003   0.002439   0.003833  -0.007636   0.002772   0.016858
    25  H    0.000000   0.000142   0.000148  -0.009660  -0.002685  -0.007280
    26  H    0.000000  -0.000040  -0.000263   0.006195   0.001137   0.012032
    27  H    0.000000   0.000005  -0.000007  -0.000032   0.000003  -0.004618
    28  H    0.000288   0.006414  -0.004923   0.024669   0.009160  -0.089487
    29  H   -0.000423   0.001212   0.003549   0.009622  -0.005201   0.008918
    30  H   -0.000507  -0.004178   0.003178   0.005105   0.000717  -0.017714
    31  H   -0.000051   0.003149  -0.002445   0.007364   0.002103  -0.067063
    32  H   -0.000406   0.018763  -0.009784  -0.017932   0.009598   0.006186
    33  H   -0.000708   0.026274  -0.011635  -0.000445  -0.000046   0.000084
    34  H    0.002082  -0.185645   0.006872   0.011375   0.000042   0.000129
              7          8          9         10         11         12
     1  O   -0.001907   0.000029  -0.000154   0.000054   0.000000   0.000001
     2  C    0.145648   0.001259  -0.008363   0.000319   0.000011  -0.000702
     3  C   -0.024708  -0.006822  -0.009409   0.013293  -0.000004  -0.001540
     4  C    0.534397   0.041665   0.030858  -0.179925  -0.000784   0.010665
     5  N    0.087015   0.015741   0.078264  -0.045001  -0.000168   0.001066
     6  C   -2.556213  -0.048953  -0.243919   0.371816   0.016012  -0.011855
     7  C    7.535431   0.305024  -0.659487  -0.054153  -0.034660   0.013999
     8  O    0.305024   8.141379  -0.152819   0.045145  -0.000670  -0.003776
     9  C   -0.659487  -0.152819   6.456041  -0.113853  -0.014456  -0.025556
    10  C   -0.054153   0.045145  -0.113853   4.973174   0.291464   0.379467
    11  O   -0.034660  -0.000670  -0.014456   0.291464   7.980091  -0.083610
    12  O    0.013999  -0.003776  -0.025556   0.379467  -0.083610   8.241840
    13  C    0.887639  -0.096636   0.172161  -0.126419  -0.006660   0.005948
    14  C   -0.402470   0.049485  -0.015503   0.037236  -0.001242   0.000090
    15  O    0.074113   0.002790   0.008152  -0.006140  -0.000075  -0.000488
    16  C   -0.220981  -0.000961   0.001244   0.002555   0.000023   0.002047
    17  C   -0.046320   0.000931   0.006165  -0.001618   0.000000   0.000203
    18  Cl   0.000680   0.000001  -0.000056   0.000002   0.000000  -0.000001
    19  C   -0.015792   0.000461   0.001984  -0.000133   0.000000   0.000016
    20  C    0.018622   0.000251  -0.001434  -0.000036   0.000003  -0.000051
    21  H    0.000462   0.000078   0.000341  -0.000081   0.000000  -0.000001
    22  H   -0.136517   0.008639   0.030029  -0.001501  -0.000785   0.001854
    23  H    0.438638  -0.051880  -0.094139   0.003547   0.000112   0.002949
    24  H   -0.023626   0.273831   0.025650  -0.005068   0.000002   0.000344
    25  H   -0.015954   0.004003   0.428730  -0.043779  -0.001589   0.001197
    26  H   -0.047129   0.002037   0.435707  -0.043993   0.002625  -0.003497
    27  H    0.009443   0.000022  -0.012282  -0.008112   0.275906   0.021654
    28  H    0.014291  -0.000039  -0.002808   0.000507  -0.000027   0.000206
    29  H   -0.020172  -0.007339   0.004917  -0.001011   0.000006   0.000028
    30  H    0.006478   0.001885   0.000519   0.000115   0.000005  -0.000002
    31  H    0.027121  -0.003727  -0.003839  -0.000238  -0.000151   0.000044
    32  H   -0.000338  -0.000051   0.000261  -0.000029   0.000000   0.000001
    33  H    0.000004   0.000000   0.000000   0.000000   0.000000   0.000000
    34  H    0.000014   0.000000  -0.000001   0.000000   0.000000   0.000000
             13         14         15         16         17         18
     1  O   -0.019989   0.009506   0.012208   0.025186  -0.037274   0.000008
     2  C   -0.078532  -0.044869  -0.049545  -0.223601  -1.313350   0.059228
     3  C   -0.146995   0.039029   0.026028   1.008150  -0.911822   0.109209
     4  C    0.695353  -0.262361   0.369797  -0.735912   0.458008  -0.038606
     5  N    0.375174  -0.020096  -0.052972   0.070239   0.019240  -0.001922
     6  C   -3.388859   0.800724  -0.595064   0.197087  -0.177131  -0.001615
     7  C    0.887639  -0.402470   0.074113  -0.220981  -0.046320   0.000680
     8  O   -0.096636   0.049485   0.002790  -0.000961   0.000931   0.000001
     9  C    0.172161  -0.015503   0.008152   0.001244   0.006165  -0.000056
    10  C   -0.126419   0.037236  -0.006140   0.002555  -0.001618   0.000002
    11  O   -0.006660  -0.001242  -0.000075   0.000023   0.000000   0.000000
    12  O    0.005948   0.000090  -0.000488   0.002047   0.000203  -0.000001
    13  C    7.509563  -0.447999   0.393835  -0.090378   0.058194  -0.000680
    14  C   -0.447999   5.645105  -0.123760   0.036548   0.003150  -0.000228
    15  O    0.393835  -0.123760   8.467286  -0.025072  -0.008456  -0.000239
    16  C   -0.090378   0.036548  -0.025072   7.759408   0.352388   0.198129
    17  C    0.058194   0.003150  -0.008456   0.352388   9.414187  -0.627628
    18  Cl  -0.000680  -0.000228  -0.000239   0.198129  -0.627628  17.083777
    19  C   -0.004174   0.002546   0.007806  -0.722171  -1.954106   0.275464
    20  C   -0.077387   0.014188   0.030710  -1.249666  -0.197715   0.035905
    21  H    0.035670  -0.010496   0.039613  -0.013421   0.003698   0.000084
    22  H   -0.042506   0.012541   0.001964   0.011608   0.002250   0.000020
    23  H   -0.033688   0.002021  -0.001267   0.000994   0.000331  -0.000006
    24  H    0.002043   0.002325  -0.001517  -0.004045  -0.001102  -0.000008
    25  H    0.005448  -0.008086   0.000191  -0.000285  -0.000021   0.000000
    26  H   -0.005035   0.004223  -0.000025   0.000237   0.000009   0.000000
    27  H    0.001047   0.000020   0.000002  -0.000005   0.000000   0.000000
    28  H    0.466787  -0.057719  -0.030212  -0.002125  -0.000386   0.000000
    29  H   -0.028308   0.426433  -0.004563  -0.006519  -0.000961   0.000003
    30  H   -0.021304   0.403202  -0.000659   0.001159   0.000114  -0.000001
    31  H   -0.001201   0.396702   0.010567  -0.001359  -0.000067   0.000000
    32  H    0.001388  -0.000016   0.000312   0.407556  -0.086799  -0.010289
    33  H    0.000023   0.000004   0.000001   0.014524  -0.062839  -0.003553
    34  H   -0.000015  -0.000063  -0.000045  -0.022015   0.057097  -0.000913
             19         20         21         22         23         24
     1  O    0.012075  -0.370683   0.272320  -0.000032   0.000000  -0.000003
     2  C   -0.198530  -1.674969  -0.000605  -0.003642  -0.000672   0.002439
     3  C   -1.079023  -1.037462  -0.043775   0.000018  -0.000724   0.003833
     4  C   -0.361127   0.151191   0.000626   0.026011  -0.002515  -0.007636
     5  N    0.012076  -0.048775  -0.000404  -0.029615  -0.017223   0.002772
     6  C   -0.080387   0.155847  -0.023927   0.441839   0.059201   0.016858
     7  C   -0.015792   0.018622   0.000462  -0.136517   0.438638  -0.023626
     8  O    0.000461   0.000251   0.000078   0.008639  -0.051880   0.273831
     9  C    0.001984  -0.001434   0.000341   0.030029  -0.094139   0.025650
    10  C   -0.000133  -0.000036  -0.000081  -0.001501   0.003547  -0.005068
    11  O    0.000000   0.000003   0.000000  -0.000785   0.000112   0.000002
    12  O    0.000016  -0.000051  -0.000001   0.001854   0.002949   0.000344
    13  C   -0.004174  -0.077387   0.035670  -0.042506  -0.033688   0.002043
    14  C    0.002546   0.014188  -0.010496   0.012541   0.002021   0.002325
    15  O    0.007806   0.030710   0.039613   0.001964  -0.001267  -0.001517
    16  C   -0.722171  -1.249666  -0.013421   0.011608   0.000994  -0.004045
    17  C   -1.954106  -0.197715   0.003698   0.002250   0.000331  -0.001102
    18  Cl   0.275464   0.035905   0.000084   0.000020  -0.000006  -0.000008
    19  C   10.268553   0.146178  -0.002888   0.000280   0.000048   0.000208
    20  C    0.146178   9.577116   0.061202  -0.000758   0.000064  -0.000164
    21  H   -0.002888   0.061202   0.293785   0.000060   0.000001  -0.000004
    22  H    0.000280  -0.000758   0.000060   0.568193  -0.007543  -0.000028
    23  H    0.000048   0.000064   0.000001  -0.007543   0.579745  -0.005916
    24  H    0.000208  -0.000164  -0.000004  -0.000028  -0.005916   0.402591
    25  H   -0.000005   0.000026  -0.000001   0.000265   0.006732  -0.000549
    26  H    0.000001  -0.000004   0.000000  -0.000113  -0.005362  -0.000316
    27  H    0.000000   0.000000   0.000000   0.000046  -0.000002  -0.000003
    28  H    0.000159   0.000892  -0.000303  -0.010546  -0.000336  -0.000033
    29  H   -0.000205  -0.000485  -0.000091  -0.000216  -0.000190  -0.000457
    30  H    0.000030  -0.001393   0.000448  -0.000136   0.000052  -0.000072
    31  H   -0.000010   0.000211   0.000001   0.000046  -0.000049  -0.000263
    32  H    0.017055  -0.001634   0.000039   0.000000   0.000012   0.000057
    33  H    0.416898  -0.041018   0.000016   0.000000   0.000000   0.000000
    34  H   -0.109584   0.591276   0.000929   0.000000   0.000000   0.000000
             25         26         27         28         29         30
     1  O    0.000000   0.000000   0.000000   0.000288  -0.000423  -0.000507
     2  C    0.000142  -0.000040   0.000005   0.006414   0.001212  -0.004178
     3  C    0.000148  -0.000263  -0.000007  -0.004923   0.003549   0.003178
     4  C   -0.009660   0.006195  -0.000032   0.024669   0.009622   0.005105
     5  N   -0.002685   0.001137   0.000003   0.009160  -0.005201   0.000717
     6  C   -0.007280   0.012032  -0.004618  -0.089487   0.008918  -0.017714
     7  C   -0.015954  -0.047129   0.009443   0.014291  -0.020172   0.006478
     8  O    0.004003   0.002037   0.000022  -0.000039  -0.007339   0.001885
     9  C    0.428730   0.435707  -0.012282  -0.002808   0.004917   0.000519
    10  C   -0.043779  -0.043993  -0.008112   0.000507  -0.001011   0.000115
    11  O   -0.001589   0.002625   0.275906  -0.000027   0.000006   0.000005
    12  O    0.001197  -0.003497   0.021654   0.000206   0.000028  -0.000002
    13  C    0.005448  -0.005035   0.001047   0.466787  -0.028308  -0.021304
    14  C   -0.008086   0.004223   0.000020  -0.057719   0.426433   0.403202
    15  O    0.000191  -0.000025   0.000002  -0.030212  -0.004563  -0.000659
    16  C   -0.000285   0.000237  -0.000005  -0.002125  -0.006519   0.001159
    17  C   -0.000021   0.000009   0.000000  -0.000386  -0.000961   0.000114
    18  Cl   0.000000   0.000000   0.000000   0.000000   0.000003  -0.000001
    19  C   -0.000005   0.000001   0.000000   0.000159  -0.000205   0.000030
    20  C    0.000026  -0.000004   0.000000   0.000892  -0.000485  -0.001393
    21  H   -0.000001   0.000000   0.000000  -0.000303  -0.000091   0.000448
    22  H    0.000265  -0.000113   0.000046  -0.010546  -0.000216  -0.000136
    23  H    0.006732  -0.005362  -0.000002  -0.000336  -0.000190   0.000052
    24  H   -0.000549  -0.000316  -0.000003  -0.000033  -0.000457  -0.000072
    25  H    0.506114  -0.029622   0.000075  -0.002175  -0.000049   0.000079
    26  H   -0.029622   0.498981  -0.000375   0.000125   0.000002  -0.000003
    27  H    0.000075  -0.000375   0.370142   0.000000   0.000000   0.000000
    28  H   -0.002175   0.000125   0.000000   0.543848   0.005634  -0.007387
    29  H   -0.000049   0.000002   0.000000   0.005634   0.518020  -0.031180
    30  H    0.000079  -0.000003   0.000000  -0.007387  -0.031180   0.536421
    31  H    0.004613  -0.000158  -0.000001  -0.001773  -0.025731  -0.024110
    32  H   -0.000001   0.000000   0.000000  -0.000004   0.000006   0.000001
    33  H    0.000000   0.000000   0.000000   0.000000   0.000000   0.000000
    34  H    0.000000   0.000000   0.000000   0.000000   0.000000   0.000000
             31         32         33         34
     1  O   -0.000051  -0.000406  -0.000708   0.002082
     2  C    0.003149   0.018763   0.026274  -0.185645
     3  C   -0.002445  -0.009784  -0.011635   0.006872
     4  C    0.007364  -0.017932  -0.000445   0.011375
     5  N    0.002103   0.009598  -0.000046   0.000042
     6  C   -0.067063   0.006186   0.000084   0.000129
     7  C    0.027121  -0.000338   0.000004   0.000014
     8  O   -0.003727  -0.000051   0.000000   0.000000
     9  C   -0.003839   0.000261   0.000000  -0.000001
    10  C   -0.000238  -0.000029   0.000000   0.000000
    11  O   -0.000151   0.000000   0.000000   0.000000
    12  O    0.000044   0.000001   0.000000   0.000000
    13  C   -0.001201   0.001388   0.000023  -0.000015
    14  C    0.396702  -0.000016   0.000004  -0.000063
    15  O    0.010567   0.000312   0.000001  -0.000045
    16  C   -0.001359   0.407556   0.014524  -0.022015
    17  C   -0.000067  -0.086799  -0.062839   0.057097
    18  Cl   0.000000  -0.010289  -0.003553  -0.000913
    19  C   -0.000010   0.017055   0.416898  -0.109584
    20  C    0.000211  -0.001634  -0.041018   0.591276
    21  H    0.000001   0.000039   0.000016   0.000929
    22  H    0.000046   0.000000   0.000000   0.000000
    23  H   -0.000049   0.000012   0.000000   0.000000
    24  H   -0.000263   0.000057   0.000000   0.000000
    25  H    0.004613  -0.000001   0.000000   0.000000
    26  H   -0.000158   0.000000   0.000000   0.000000
    27  H   -0.000001   0.000000   0.000000   0.000000
    28  H   -0.001773  -0.000004   0.000000   0.000000
    29  H   -0.025731   0.000006   0.000000   0.000000
    30  H   -0.024110   0.000001   0.000000   0.000000
    31  H    0.535202  -0.000001   0.000000   0.000000
    32  H   -0.000001   0.497783  -0.000094   0.000043
    33  H    0.000000  -0.000094   0.516658  -0.004815
    34  H    0.000000   0.000043  -0.004815   0.518276
 Mulliken atomic charges:
              1
     1  O   -0.570938
     2  C   -0.299557
     3  C    0.239924
     4  C    0.750317
     5  N   -0.416099
     6  C    0.295082
     7  C    0.161408
     8  O   -0.520985
     9  C   -0.322944
    10  C    0.512396
    11  O   -0.421381
    12  O   -0.552541
    13  C    0.006489
    14  C   -0.490169
    15  O   -0.545280
    16  C   -0.770570
    17  C    1.051627
    18  Cl  -0.076766
    19  C   -0.633702
    20  C   -0.080047
    21  H    0.386626
    22  H    0.128273
    23  H    0.127062
    24  H    0.317859
    25  H    0.163978
    26  H    0.172625
    27  H    0.347070
    28  H    0.137303
    29  H    0.154752
    30  H    0.149135
    31  H    0.145113
    32  H    0.168314
    33  H    0.150666
    34  H    0.134958
 Sum of Mulliken atomic charges =   0.00000
 Mulliken charges with hydrogens summed into heavy atoms:
              1
     1  O   -0.184312
     2  C   -0.299557
     3  C    0.239924
     4  C    0.750317
     5  N   -0.416099
     6  C    0.423355
     7  C    0.288470
     8  O   -0.203126
     9  C    0.013659
    10  C    0.512396
    11  O   -0.074311
    12  O   -0.552541
    13  C    0.143792
    14  C   -0.041169
    15  O   -0.545280
    16  C   -0.602256
    17  C    1.051627
    18  Cl  -0.076766
    19  C   -0.483035
    20  C    0.054911
 Sum of Mulliken charges with hydrogens summed into heavy atoms =   0.00000
 Electronic spatial extent (au):  <R**2>=           8349.8825
 Charge=              0.0000 electrons
 Dipole moment (field-independent basis, Debye):
    X=             -3.8790    Y=              3.7575    Z=             -0.1717  Tot=              5.4032
 Quadrupole moment (field-independent basis, Debye-Ang):
   XX=           -105.9327   YY=           -130.5302   ZZ=           -128.4601
   XY=             -0.8660   XZ=              5.8902   YZ=             -3.0571
 Traceless Quadrupole moment (field-independent basis, Debye-Ang):
   XX=             15.7083   YY=             -8.8892   ZZ=             -6.8191
   XY=             -0.8660   XZ=              5.8902   YZ=             -3.0571
 Octapole moment (field-independent basis, Debye-Ang**2):
  XXX=           -136.6955  YYY=              5.5291  ZZZ=            -12.0610  XYY=            -30.4212
  XXY=             37.0068  XXZ=            -51.6830  XZZ=            -19.9634  YZZ=              3.9750
  YYZ=             12.0076  XYZ=              9.2982
 Hexadecapole moment (field-independent basis, Debye-Ang**3):
 XXXX=          -7410.6110 YYYY=          -1743.5872 ZZZZ=           -621.8375 XXXY=            343.5995
 XXXZ=            356.8245 YYYX=            -63.6749 YYYZ=            -21.3186 ZZZX=            104.2582
 ZZZY=            -13.7940 XXYY=          -1796.4101 XXZZ=          -1488.5408 YYZZ=           -404.4497
 XXYZ=            -13.8349 YYXZ=            -19.1541 ZZXY=            -20.6348
 N-N= 1.673280254029D+03 E-N=-6.626326567368D+03  KE= 1.390545464185D+03
 1\1\GINC-PROD2-0120\SP\RB3LYP\6-311+G(2d,p)\C13H14Cl1N1O5\YUHENG\26-Ma
 r-2019\0\\# b3lyp/6-311+G(2d,p) nmr guess=read geom=check integral(ult
 rafinegrid) scrf=(iefpcm,read,solvent=methanol)\\Candidate Structure: 
 1b, Conformer: 2, NMR calculation with methanol solvation\\0,1\O,0,-1.
 0043902982,4.7177546827,0.5353349598\C,0,-1.7210135776,3.6814987075,0.
 0501471534\C,0,-1.2040854187,2.6602236632,-0.7691133915\C,0,0.19986780
 46,2.6093588407,-1.2079726612\N,0,0.6963261268,1.8016548111,-2.0574043
 672\C,0,2.1434379651,2.0712885708,-2.0792182407\C,0,2.7132103094,1.811
 1679092,-3.4738105543\O,0,2.0989795208,2.6083923464,-4.4685205792\C,0,
 4.2126365775,2.064822745,-3.5687506929\C,0,5.0395976744,1.0565012855,-
 2.8114834995\O,0,6.3302364193,1.4033307217,-2.778219335\O,0,4.61586331
 25,0.040783407,-2.3028600918\C,0,2.2648862096,3.482275263,-1.458342943
 9\C,0,2.2099852999,4.6900073367,-2.379273932\O,0,1.0536644588,3.510956
 3336,-0.6389033351\C,0,-2.0557311539,1.6362427346,-1.2140416445\C,0,-3
 .3882454536,1.6348536416,-0.8536000262\Cl,0,-4.4364364824,0.3528373272
 ,-1.4151494641\C,0,-3.9116558501,2.6442593363,-0.041421903\C,0,-3.0779
 970228,3.6554892902,0.4031488671\H,0,-0.0720625473,4.6525671749,0.2642
 547132\H,0,2.6211985734,1.3467848118,-1.4040392537\H,0,2.5314237471,0.
 7471513539,-3.6810976041\H,0,1.14572458,2.4147104365,-4.4654289214\H,0
 ,4.4899598747,3.0679809766,-3.2293414377\H,0,4.5130063948,2.0049207643
 ,-4.6217107124\H,0,6.8347219067,0.7108603343,-2.3009055099\H,0,3.10765
 95295,3.5481048845,-0.7662497021\H,0,1.317750486,4.6583630824,-3.00804
 86423\H,0,2.1900124897,5.5975527515,-1.7702091643\H,0,3.0800279293,4.7
 300167563,-3.0370298028\H,0,-1.6453028559,0.8515882423,-1.8422745775\H
 ,0,-4.9610582713,2.6328451405,0.2385635782\H,0,-3.4586802578,4.4522323
 362,1.0351887187\\Version=EM64L-G09RevB.01\State=1-A\HF=-1395.2469068\
 RMSD=4.909e-09\Dipole=1.7137928,1.2355035,0.2355014\Quadrupole=12.6284
 215,-7.9962934,-4.6321281,-1.8324082,-0.6869828,1.1739067\PG=C01 [X(C1
 3H14Cl1N1O5)]\\@


 TERENCE, THIS IS STUPID STUFF:
 YOU EAT YOUR VICTUALS FAST ENOUGH;
 THERE CAN'T BE MUCH AMISS, 'TIS CLEAR
 TO SEE THE RATE YOU DRINK YOUR BEER.
 BUT OH, GOOD LORD, THE VERSE YOU MAKE,
 IT GIVES A CHAP THE BELLY-ACHE.
 THE COW, THE OLD COW, SHE IS DEAD;
 IT SLEEPS WELL, THE HORNED HEAD:
 WE POOR LADS, 'TIS OUR TURN NOW
 TO HEAR SUCH TUNES AS KILLED THE COW.
 PRETTY FRIENDSHIP 'TIS TO RHYME
 YOUR FRIENDS TO DEATH BEFORE THEIR TIME.
 MOPING, MELANCHOLY MAD:
 COME PIPE A TUNE TO DANCE TO, LAD.

     -- A. E. HOUSMAN
 Job cpu time:  0 days  2 hours 31 minutes  1.3 seconds.
 File lengths (MBytes):  RWF=    331 Int=      0 D2E=      0 Chk=     30 Scr=      1
 Normal termination of Gaussian 09 at Tue Mar 26 02:59:55 2019.
