 Entering Gaussian System, Link 0=g09
 Initial command:
 /home/yuheng/proj/yuheng/g09/l1.exe /home/yuheng/proj/yuheng/g09_scratch/Gau-28275.inp -scrdir=/home/yuheng/proj/yuheng/g09_scratch/
 Entering Link 1 = /home/yuheng/proj/yuheng/g09/l1.exe PID=     28276.
  
 Copyright (c) 1988,1990,1992,1993,1995,1998,2003,2009,2010,
            Gaussian, Inc.  All Rights Reserved.
  
 This is part of the Gaussian(R) 09 program.  It is based on
 the Gaussian(R) 03 system (copyright 2003, Gaussian, Inc.),
 the Gaussian(R) 98 system (copyright 1998, Gaussian, Inc.),
 the Gaussian(R) 94 system (copyright 1995, Gaussian, Inc.),
 the Gaussian 92(TM) system (copyright 1992, Gaussian, Inc.),
 the Gaussian 90(TM) system (copyright 1990, Gaussian, Inc.),
 the Gaussian 88(TM) system (copyright 1988, Gaussian, Inc.),
 the Gaussian 86(TM) system (copyright 1986, Carnegie Mellon
 University), and the Gaussian 82(TM) system (copyright 1983,
 Carnegie Mellon University). Gaussian is a federally registered
 trademark of Gaussian, Inc.
  
 This software contains proprietary and confidential information,
 including trade secrets, belonging to Gaussian, Inc.
  
 This software is provided under written license and may be
 used, copied, transmitted, or stored only in accord with that
 written license.
  
 The following legend is applicable only to US Government
 contracts under FAR:
  
                    RESTRICTED RIGHTS LEGEND
  
 Use, reproduction and disclosure by the US Government is
 subject to restrictions as set forth in subparagraphs (a)
 and (c) of the Commercial Computer Software - Restricted
 Rights clause in FAR 52.227-19.
  
 Gaussian, Inc.
 340 Quinnipiac St., Bldg. 40, Wallingford CT 06492
  
  
 ---------------------------------------------------------------
 Warning -- This program may not be used in any manner that
 competes with the business of Gaussian, Inc. or will provide
 assistance to any competitor of Gaussian, Inc.  The licensee
 of this program is prohibited from giving any competitor of
 Gaussian, Inc. access to this program.  By using this program,
 the user acknowledges that Gaussian, Inc. is engaged in the
 business of creating and licensing software in the field of
 computational chemistry and represents and warrants to the
 licensee that it is not a competitor of Gaussian, Inc. and that
 it will not use this program in any manner prohibited above.
 ---------------------------------------------------------------
  

 Cite this work as:
 Gaussian 09, Revision B.01,
 M. J. Frisch, G. W. Trucks, H. B. Schlegel, G. E. Scuseria, 
 M. A. Robb, J. R. Cheeseman, G. Scalmani, V. Barone, B. Mennucci, 
 G. A. Petersson, H. Nakatsuji, M. Caricato, X. Li, H. P. Hratchian, 
 A. F. Izmaylov, J. Bloino, G. Zheng, J. L. Sonnenberg, M. Hada, 
 M. Ehara, K. Toyota, R. Fukuda, J. Hasegawa, M. Ishida, T. Nakajima, 
 Y. Honda, O. Kitao, H. Nakai, T. Vreven, J. A. Montgomery, Jr., 
 J. E. Peralta, F. Ogliaro, M. Bearpark, J. J. Heyd, E. Brothers, 
 K. N. Kudin, V. N. Staroverov, T. Keith, R. Kobayashi, J. Normand, 
 K. Raghavachari, A. Rendell, J. C. Burant, S. S. Iyengar, J. Tomasi, 
 M. Cossi, N. Rega, J. M. Millam, M. Klene, J. E. Knox, J. B. Cross, 
 V. Bakken, C. Adamo, J. Jaramillo, R. Gomperts, R. E. Stratmann, 
 O. Yazyev, A. J. Austin, R. Cammi, C. Pomelli, J. W. Ochterski, 
 R. L. Martin, K. Morokuma, V. G. Zakrzewski, G. A. Voth, 
 P. Salvador, J. J. Dannenberg, S. Dapprich, A. D. Daniels, 
 O. Farkas, J. B. Foresman, J. V. Ortiz, J. Cioslowski, 
 and D. J. Fox, Gaussian, Inc., Wallingford CT, 2010.
 
 ******************************************
 Gaussian 09:  EM64L-G09RevB.01 12-Aug-2010
                26-Mar-2019 
 ******************************************
 %mem=16gb
 %nprocshared=20
 Will use up to   20 processors via shared memory.
 %chk=1b-conf-14.chk
 ----------------------------------------------------------------------
 # b3lyp/6-311+G(2d,p) nmr guess=read geom=check integral(ultrafinegrid
 ) scrf=(iefpcm,read,solvent=methanol)
 ----------------------------------------------------------------------
 1/29=2,38=1,40=2/1;
 2/12=2,40=1/2;
 3/5=4,6=6,7=112,11=2,14=-4,16=1,25=1,30=1,70=2203,72=3,74=-5,75=-5,116=-2/1,2,8,3;
 4/5=1/1;
 5/5=2,38=6,53=3/2;
 8/6=1,10=90,11=11/1;
 10/13=100,45=16/2;
 6/7=2,8=2,9=2,10=2,28=1/1;
 99/9=1/99;
 ----------------------------------------------------------------------
 Candidate Structure: 1b, Conformer: 14, NMR calculation with methanol 
 solvation
 ----------------------------------------------------------------------
 Redundant internal coordinates taken from checkpoint file:
 1b-conf-14.chk
 Charge =  0 Multiplicity = 1
 O,0,0.656968211,-2.5544670467,0.2593183254
 C,0,1.5869034567,-1.5820523016,0.1520076402
 C,0,1.3192815906,-0.2127926442,0.3283981139
 C,0,-0.0190050988,0.2895805451,0.6928892469
 N,0,-0.4927933757,1.4365564008,0.4006398652
 C,0,-1.8903549568,1.4340685983,0.8689744655
 C,0,-2.8411178542,1.452776593,-0.3463802523
 O,0,-2.9758006177,2.7876238593,-0.7985142749
 C,0,-2.4003022888,0.5905081208,-1.5495768013
 C,0,-2.4814449809,-0.8971506303,-1.3476865645
 O,0,-3.7339972214,-1.3559124508,-1.4241029275
 O,0,-1.5323974466,-1.6228604956,-1.1109992293
 C,0,-1.9437194473,0.2302254995,1.8287065674
 C,0,-3.197913051,-0.6114152489,1.8968365703
 O,0,-0.8085915557,-0.5640303221,1.3938904192
 C,0,2.3508675776,0.724674805,0.1668124117
 C,0,3.6329263784,0.2980058533,-0.1346591387
 Cl,0,4.9146943127,1.4762808136,-0.3196399893
 C,0,3.9189977083,-1.0602129634,-0.2860464628
 C,0,2.896324798,-1.98767049,-0.1459768328
 H,0,-0.2441090628,-2.1886277935,0.213509476
 H,0,-2.1021951535,2.3562256039,1.4203371298
 H,0,-3.8407740664,1.1446219549,-0.0165377513
 H,0,-2.0863930953,3.1530249659,-0.9522337029
 H,0,-1.3697525973,0.8435867225,-1.8068777886
 H,0,-3.0629868983,0.8571309257,-2.3766842717
 H,0,-3.7347941766,-2.326972128,-1.2766109246
 H,0,-1.6808461739,0.5868110519,2.8321008278
 H,0,-3.4848086865,-1.0155518651,0.9249580136
 H,0,-3.0516503082,-1.4431058962,2.5891204032
 H,0,-4.0238620221,0.0003833351,2.2719362607
 H,0,2.1277480343,1.7791896705,0.2970324978
 H,0,4.9292222719,-1.3849170425,-0.516379676
 H,0,3.086838301,-3.0485709139,-0.2768020153
 Recover connectivity data from disk.
                          Input orientation:                          
 ---------------------------------------------------------------------
 Center     Atomic      Atomic             Coordinates (Angstroms)
 Number     Number       Type             X           Y           Z
 ---------------------------------------------------------------------
      1          8           0        0.656968   -2.554467    0.259318
      2          6           0        1.586903   -1.582052    0.152008
      3          6           0        1.319282   -0.212793    0.328398
      4          6           0       -0.019005    0.289581    0.692889
      5          7           0       -0.492793    1.436556    0.400640
      6          6           0       -1.890355    1.434069    0.868974
      7          6           0       -2.841118    1.452777   -0.346380
      8          8           0       -2.975801    2.787624   -0.798514
      9          6           0       -2.400302    0.590508   -1.549577
     10          6           0       -2.481445   -0.897151   -1.347687
     11          8           0       -3.733997   -1.355912   -1.424103
     12          8           0       -1.532397   -1.622860   -1.110999
     13          6           0       -1.943719    0.230225    1.828707
     14          6           0       -3.197913   -0.611415    1.896837
     15          8           0       -0.808592   -0.564030    1.393890
     16          6           0        2.350868    0.724675    0.166812
     17          6           0        3.632926    0.298006   -0.134659
     18         17           0        4.914694    1.476281   -0.319640
     19          6           0        3.918998   -1.060213   -0.286046
     20          6           0        2.896325   -1.987670   -0.145977
     21          1           0       -0.244109   -2.188628    0.213509
     22          1           0       -2.102195    2.356226    1.420337
     23          1           0       -3.840774    1.144622   -0.016538
     24          1           0       -2.086393    3.153025   -0.952234
     25          1           0       -1.369753    0.843587   -1.806878
     26          1           0       -3.062987    0.857131   -2.376684
     27          1           0       -3.734794   -2.326972   -1.276611
     28          1           0       -1.680846    0.586811    2.832101
     29          1           0       -3.484809   -1.015552    0.924958
     30          1           0       -3.051650   -1.443106    2.589120
     31          1           0       -4.023862    0.000383    2.271936
     32          1           0        2.127748    1.779190    0.297032
     33          1           0        4.929222   -1.384917   -0.516380
     34          1           0        3.086838   -3.048571   -0.276802
 ---------------------------------------------------------------------
                    Distance matrix (angstroms):
                    1          2          3          4          5
     1  O    0.000000
     2  C    1.349772   0.000000
     3  C    2.434516   1.406274   0.000000
     4  C    2.955255   2.524778   1.475210   0.000000
     5  N    4.155742   3.674092   2.451364   1.274927   0.000000
     6  C    4.771682   4.658578   3.647758   2.200638   1.473948
     7  C    5.353642   5.391285   4.531928   3.224504   2.464332
     8  O    6.546293   6.388727   5.359120   4.148150   3.070615
     9  C    4.744457   4.849043   4.243511   3.284781   2.856175
    10  C    3.895998   4.389719   4.209885   3.411142   3.529528
    11  O    4.852939   5.554030   5.469334   4.581536   4.651126
    12  O    2.745721   3.365545   3.491737   3.033447   3.567332
    13  C    4.120809   4.308244   3.618614   2.235650   2.366389
    14  C    4.617036   5.184692   4.798327   3.516637   3.708162
    15  O    2.719735   2.883928   2.405512   1.357756   2.255798
    16  C    3.691967   2.429990   1.403255   2.466244   2.940724
    17  C    4.141032   2.793386   2.414185   3.744531   4.313282
    18  Cl   5.891549   4.544232   4.024912   5.174443   5.455392
    19  C    3.629195   2.429583   2.802532   4.276462   5.115593
    20  C    2.345259   1.402820   2.421216   3.793246   4.848736
    21  H    0.973590   1.929851   2.522165   2.534165   3.638519
    22  H    5.751161   5.543297   4.415732   3.023224   2.115596
    23  H    5.830012   6.076417   5.346749   3.979988   3.386479
    24  H    6.447430   6.093719   4.956548   3.896131   2.704827
    25  H    4.463579   4.296833   3.592526   2.894871   2.448225
    26  H    5.694346   5.827982   5.259894   4.360071   3.828206
    27  H    4.658155   5.560245   5.708721   4.953016   5.242889
    28  H    4.685319   4.750269   3.988566   2.725122   2.836466
    29  H    4.468294   5.161457   4.907096   3.710663   3.903831
    30  H    4.518512   5.241661   5.072434   3.974271   4.430536
    31  H    5.699830   6.203135   5.689637   4.314615   4.246503
    32  H    4.576592   3.407564   2.150022   2.642761   2.644876
    33  H    4.496855   3.414191   3.888341   5.362017   6.180606
    34  H    2.536894   2.141112   3.395904   4.661525   5.778327
                    6          7          8          9         10
     6  C    0.000000
     7  C    1.543174   0.000000
     8  O    2.406413   1.415762   0.000000
     9  C    2.611710   1.544509   2.392198   0.000000
    10  C    3.270712   2.579561   3.758130   1.503487   0.000000
    11  O    4.054777   3.138065   4.258535   2.362846   1.336110
    12  O    3.659678   3.428839   4.651175   2.417563   1.217936
    13  C    1.540510   2.651595   3.808906   3.427983   3.413151
    14  C    2.636326   3.069236   4.343699   3.736117   3.334952
    15  O    2.331984   3.350704   4.553792   3.539845   3.228878
    16  C    4.357091   5.267847   5.793186   5.053475   5.317450
    17  C    5.727526   6.579633   7.093248   6.203821   6.347076
    18  Cl   6.908204   7.755894   8.013043   7.470376   7.835364
    19  C    6.426826   7.212345   7.912441   6.652439   6.489941
    20  C    5.970823   6.692913   7.596782   6.055688   5.617272
    21  H    4.032826   4.507522   5.766230   3.934621   3.018430
    22  H    1.095103   2.117432   2.423343   3.467999   4.288385
    23  H    2.161492   1.096845   2.014726   2.175364   2.790801
    24  H    2.511980   1.956403   0.973752   2.649877   4.088566
    25  H    2.789244   2.160806   2.715781   1.091918   2.115865
    26  H    3.498889   2.127476   2.495000   1.092861   2.115309
    27  H    4.706476   3.993806   5.192662   3.219793   1.902715
    28  H    2.148396   3.492688   4.438677   4.440352   4.507075
    29  H    2.923364   2.850138   4.206375   3.143073   2.487101
    30  H    3.547625   4.128877   5.420415   4.657108   4.015178
    31  H    2.928414   3.219303   4.277243   4.193824   4.035627
    32  H    4.073252   5.020971   5.316331   5.032511   5.577863
    33  H    7.508164   8.274031   8.943103   7.661053   7.473083
    34  H    6.795536   7.443630   8.431426   6.706084   6.064749
                   11         12         13         14         15
    11  O    0.000000
    12  O    2.239718   0.000000
    13  C    4.037536   3.499283   0.000000
    14  C    3.445330   3.583858   1.511953   0.000000
    15  O    4.138377   2.814159   1.452041   2.442142   0.000000
    16  C    6.624608   4.714178   4.631398   5.963815   3.626109
    17  C    7.659613   5.596743   5.912561   7.184315   4.775631
    18  Cl   9.167389   7.196938   7.294236   8.665197   6.313086
    19  C    7.742799   5.542096   6.364657   7.457668   5.041675
    20  C    6.781880   4.547300   5.678421   6.573196   4.257270
    21  H    3.943920   1.932383   3.368737   3.747819   2.085967
    22  H    4.953139   4.750312   2.170658   3.199147   3.194058
    23  H    2.871465   3.766352   2.799976   2.675432   3.755387
    24  H    4.823668   4.810530   4.036922   4.850122   4.577508
    25  H    3.251763   2.567891   3.731370   4.379121   3.541356
    26  H    2.501045   3.177266   4.396713   4.520820   4.617275
    27  H    0.982197   2.318135   4.403431   3.647211   4.336151
    28  H    5.109293   4.522469   1.096839   2.147547   2.038066
    29  H    2.386635   2.885456   2.177999   1.090955   2.754253
    30  H    4.071752   4.003914   2.146108   1.091952   2.689361
    31  H    3.947691   4.504061   2.139223   1.094161   3.380457
    32  H    6.866675   5.191644   4.617593   6.052853   3.913549
    33  H    8.710693   6.493283   7.439452   8.513063   6.102909
    34  H    7.120758   4.905698   6.363190   7.082551   4.913098
                   16         17         18         19         20
    16  C    0.000000
    17  C    1.384415   0.000000
    18  Cl   2.715650   1.750851   0.000000
    19  C    2.418664   1.396250   2.725131   0.000000
    20  C    2.784273   2.401463   4.012846   1.387680   0.000000
    21  H    3.901720   4.619088   6.350516   4.342158   3.167324
    22  H    4.905410   6.288553   7.282758   7.130116   6.804996
    23  H    6.208575   7.522427   8.766989   8.071430   7.430781
    24  H    5.180582   6.444391   7.226816   7.366132   7.204462
    25  H    4.213384   5.302902   6.488948   5.823080   5.382753
    26  H    5.983038   7.083400   8.261851   7.536251   6.970104
    27  H    6.959260   7.904294   9.497062   7.820897   6.735369
    28  H    4.835027   6.092721   7.363816   6.617687   6.037168
    29  H    6.136635   7.315079   8.849288   7.502325   6.542995
    30  H    6.305081   7.425228   8.969189   7.550041   6.569301
    31  H    6.752283   8.031606   9.422968   8.411728   7.595238
    32  H    1.085698   2.155418   2.870385   3.407457   3.869910
    33  H    3.400741   2.158315   2.867991   1.085836   2.152483
    34  H    3.869862   3.393817   4.880284   2.155491   1.085781
                   21         22         23         24         25
    21  H    0.000000
    22  H    5.056146   0.000000
    23  H    4.909122   2.560322   0.000000
    24  H    5.769421   2.502845   2.826139   0.000000
    25  H    3.813576   3.638608   3.066250   2.564663   0.000000
    26  H    4.892016   4.193778   2.501579   2.872964   1.786590
    27  H    3.797957   5.645463   3.694723   5.731738   3.990871
    28  H    4.077290   2.302486   3.618174   4.590328   4.656483
    29  H    3.519148   3.677758   2.383165   4.780842   3.923364
    30  H    3.752548   4.086862   3.756129   5.881949   5.232833
    31  H    4.828605   3.157217   2.565135   4.907974   4.938827
    32  H    4.623447   4.414431   6.010346   4.605114   4.187398
    33  H    5.286024   8.196820   9.141184   8.366705   6.805050
    34  H    3.474927   7.682329   8.102001   8.104216   6.111565
                   26         27         28         29         30
    26  H    0.000000
    27  H    3.435113   0.000000
    28  H    5.395816   5.439701   0.000000
    29  H    3.819125   2.574727   3.075555   0.000000
    30  H    5.472699   4.023902   2.461444   1.771966   0.000000
    31  H    4.823585   4.253508   2.479396   1.771173   1.769029
    32  H    5.911234   7.328460   4.727973   6.301243   6.516366
    33  H    8.506640   8.748177   7.667662   8.544577   8.563985
    34  H    7.581844   6.932171   6.753673   6.983118   6.962189
                   31         32         33         34
    31  H    0.000000
    32  H    6.701246   0.000000
    33  H    9.479002   4.303658   0.000000
    34  H    8.145812   4.955443   2.493897   0.000000
 Stoichiometry    C13H14ClNO5
 Framework group  C1[X(C13H14ClNO5)]
 Deg. of freedom    96
 Full point group                 C1      NOp   1
 Largest Abelian subgroup         C1      NOp   1
 Largest concise Abelian subgroup C1      NOp   1
                         Standard orientation:                         
 ---------------------------------------------------------------------
 Center     Atomic      Atomic             Coordinates (Angstroms)
 Number     Number       Type             X           Y           Z
 ---------------------------------------------------------------------
      1          8           0        0.656968   -2.554467    0.259318
      2          6           0        1.586903   -1.582052    0.152008
      3          6           0        1.319282   -0.212793    0.328398
      4          6           0       -0.019005    0.289581    0.692889
      5          7           0       -0.492793    1.436556    0.400640
      6          6           0       -1.890355    1.434069    0.868974
      7          6           0       -2.841118    1.452777   -0.346380
      8          8           0       -2.975801    2.787624   -0.798514
      9          6           0       -2.400302    0.590508   -1.549577
     10          6           0       -2.481445   -0.897151   -1.347687
     11          8           0       -3.733997   -1.355912   -1.424103
     12          8           0       -1.532397   -1.622860   -1.110999
     13          6           0       -1.943719    0.230225    1.828707
     14          6           0       -3.197913   -0.611415    1.896837
     15          8           0       -0.808592   -0.564030    1.393890
     16          6           0        2.350868    0.724675    0.166812
     17          6           0        3.632926    0.298006   -0.134659
     18         17           0        4.914694    1.476281   -0.319640
     19          6           0        3.918998   -1.060213   -0.286046
     20          6           0        2.896325   -1.987670   -0.145977
     21          1           0       -0.244109   -2.188628    0.213509
     22          1           0       -2.102195    2.356226    1.420337
     23          1           0       -3.840774    1.144622   -0.016538
     24          1           0       -2.086393    3.153025   -0.952234
     25          1           0       -1.369753    0.843587   -1.806878
     26          1           0       -3.062987    0.857131   -2.376684
     27          1           0       -3.734794   -2.326972   -1.276611
     28          1           0       -1.680846    0.586811    2.832101
     29          1           0       -3.484809   -1.015552    0.924958
     30          1           0       -3.051650   -1.443106    2.589120
     31          1           0       -4.023862    0.000383    2.271936
     32          1           0        2.127748    1.779190    0.297032
     33          1           0        4.929222   -1.384917   -0.516380
     34          1           0        3.086838   -3.048571   -0.276802
 ---------------------------------------------------------------------
 Rotational constants (GHZ):      0.5527551      0.1875155      0.1666831
 Standard basis: 6-311+G(2d,p) (5D, 7F)
 There are   632 symmetry adapted basis functions of A   symmetry.
 Integral buffers will be    131072 words long.
 Raffenetti 2 integral format.
 Two-electron integral symmetry is turned on.
   632 basis functions,   969 primitive gaussians,   672 cartesian basis functions
    78 alpha electrons       78 beta electrons
       nuclear repulsion energy      1764.0124230850 Hartrees.
 NAtoms=   34 NActive=   34 NUniq=   34 SFac= 1.00D+00 NAtFMM=   50 NAOKFM=F Big=F
 Using the following non-standard input for PCM:
 radii=bondi
 --- end of non-standard input.
 ------------------------------------------------------------------------------
 Polarizable Continuum Model (PCM)
 =================================
 Model                : PCM.
 Atomic radii         : Bondi.
 Polarization charges : Total charges.
 Charge compensation  : None.
 Solution method      : Matrix inversion.
 Cavity type          : Scaled VdW (van der Waals Surface) (Alpha=1.100).
 Cavity algorithm     : GePol (No added spheres)
                        Default sphere list used, NSphG=   34.
                        Lebedev-Laikov grids with approx.  5.0 points / Ang**2.
                        Smoothing algorithm: Karplus/York (Gamma=1.0000).
                        Polarization charges: spherical gaussians, with
                                              point-specific exponents (IZeta= 3).
                        Self-potential: point-specific (ISelfS= 7).
                        Self-field    : sphere-specific E.n sum rule (ISelfD= 2).
 Solvent              : Methanol, Eps=  32.613000 Eps(inf)=   1.765709
 ------------------------------------------------------------------------------
 One-electron integrals computed using PRISM.
 NBasis=   632 RedAO= T  NBF=   632
 NBsUse=   630 1.00D-06 NBFU=   630
 Initial guess read from the checkpoint file:  1b-conf-14.chk
 B after Tr=     0.000000    0.000000    0.000000
         Rot=    1.000000    0.000000    0.000000    0.000000 Ang=   0.00 deg.
 Initial guess orbital symmetries:
       Occupied  (A) (A) (A) (A) (A) (A) (A) (A) (A) (A) (A) (A)
                 (A) (A) (A) (A) (A) (A) (A) (A) (A) (A) (A) (A)
                 (A) (A) (A) (A) (A) (A) (A) (A) (A) (A) (A) (A)
                 (A) (A) (A) (A) (A) (A) (A) (A) (A) (A) (A) (A)
                 (A) (A) (A) (A) (A) (A) (A) (A) (A) (A) (A) (A)
                 (A) (A) (A) (A) (A) (A) (A) (A) (A) (A) (A) (A)
                 (A) (A) (A) (A) (A) (A)
       Virtual   (A) (A) (A) (A) (A) (A) (A) (A) (A) (A) (A) (A)
                 (A) (A) (A) (A) (A) (A) (A) (A) (A) (A) (A) (A)
                 (A) (A) (A) (A) (A) (A) (A) (A) (A) (A) (A) (A)
                 (A) (A) (A) (A) (A) (A) (A) (A) (A) (A) (A) (A)
                 (A) (A) (A) (A) (A) (A) (A) (A) (A) (A) (A) (A)
                 (A) (A) (A) (A) (A) (A) (A) (A) (A) (A) (A) (A)
                 (A) (A) (A) (A) (A) (A) (A) (A) (A) (A) (A) (A)
                 (A) (A) (A) (A) (A) (A) (A) (A) (A) (A) (A) (A)
                 (A) (A) (A) (A) (A) (A) (A) (A) (A) (A) (A) (A)
                 (A) (A) (A) (A) (A) (A) (A) (A) (A) (A) (A) (A)
                 (A) (A) (A) (A) (A) (A) (A) (A) (A) (A) (A) (A)
                 (A) (A) (A) (A) (A) (A) (A) (A) (A) (A) (A) (A)
                 (A) (A) (A) (A) (A) (A) (A) (A) (A) (A) (A) (A)
                 (A) (A) (A) (A) (A) (A) (A) (A) (A) (A) (A) (A)
                 (A) (A) (A) (A) (A) (A) (A) (A) (A) (A) (A) (A)
                 (A) (A) (A) (A) (A) (A) (A) (A) (A) (A) (A) (A)
                 (A) (A) (A) (A) (A) (A) (A) (A) (A) (A) (A) (A)
                 (A) (A) (A) (A) (A) (A) (A) (A) (A) (A) (A) (A)
                 (A) (A) (A) (A) (A) (A) (A) (A) (A) (A) (A) (A)
                 (A) (A) (A) (A) (A) (A) (A) (A) (A) (A) (A) (A)
                 (A) (A) (A) (A) (A) (A) (A) (A) (A) (A) (A) (A)
                 (A) (A) (A) (A) (A) (A) (A) (A) (A) (A) (A) (A)
                 (A) (A) (A) (A) (A) (A) (A) (A) (A) (A) (A) (A)
                 (A) (A) (A) (A) (A) (A) (A) (A) (A) (A) (A) (A)
                 (A) (A) (A) (A) (A) (A) (A) (A) (A) (A) (A) (A)
                 (A) (A) (A) (A) (A) (A) (A) (A) (A) (A) (A) (A)
                 (A) (A) (A) (A) (A) (A) (A) (A) (A) (A) (A) (A)
                 (A) (A) (A) (A) (A) (A) (A) (A) (A) (A) (A) (A)
                 (A) (A) (A) (A) (A) (A) (A) (A) (A) (A) (A) (A)
                 (A) (A) (A) (A) (A) (A) (A) (A) (A) (A) (A) (A)
                 (A) (A) (A) (A) (A) (A) (A) (A) (A) (A) (A) (A)
                 (A) (A) (A) (A) (A) (A) (A) (A) (A) (A) (A) (A)
                 (A) (A) (A) (A) (A) (A) (A) (A) (A) (A) (A) (A)
                 (A) (A) (A) (A) (A) (A) (A) (A) (A) (A) (A) (A)
                 (A) (A) (A) (A) (A) (A) (A) (A) (A) (A) (A) (A)
                 (A) (A) (A) (A) (A) (A) (A) (A) (A) (A) (A) (A)
                 (A) (A) (A) (A) (A) (A) (A) (A) (A) (A) (A) (A)
                 (A) (A) (A) (A) (A) (A) (A) (A) (A) (A) (A) (A)
                 (A) (A) (A) (A) (A) (A) (A) (A) (A) (A) (A) (A)
                 (A) (A) (A) (A) (A) (A) (A) (A) (A) (A) (A) (A)
                 (A) (A) (A) (A) (A) (A) (A) (A) (A) (A) (A) (A)
                 (A) (A) (A) (A) (A) (A) (A) (A) (A) (A) (A) (A)
                 (A) (A) (A) (A) (A) (A) (A) (A) (A) (A) (A) (A)
                 (A) (A) (A) (A) (A) (A) (A) (A) (A) (A) (A) (A)
                 (A) (A) (A) (A) (A) (A) (A) (A) (A) (A) (A) (A)
                 (A) (A) (A) (A) (A) (A) (A) (A) (A) (A) (A) (A)
 Requested convergence on RMS density matrix=1.00D-08 within 128 cycles.
 Requested convergence on MAX density matrix=1.00D-06.
 Requested convergence on             energy=1.00D-06.
 No special actions if energy rises.
 Error on total polarization charges =  0.04996
 SCF Done:  E(RB3LYP) =  -1395.23680443     A.U. after   13 cycles
             Convg  =    0.4286D-08             -V/T =  2.0034
 Range of M.O.s used for correlation:     1   630
 NBasis=   632 NAE=    78 NBE=    78 NFC=     0 NFV=     0
 NROrb=    630 NOA=    78 NOB=    78 NVA=   552 NVB=   552

 **** Warning!!: The largest alpha MO coefficient is  0.13959536D+03

 NEqPCM:  Using equilibrium solvation (IEInf=0, Eps=  32.6130, EpsInf=   1.7657)
          Differentiating once with respect to magnetic field using GIAOs.
          Electric field/nuclear overlap derivatives assumed to be zero.
 FoFCou: FMM=F IPFlag=           0 FMFlag=    10101102 FMFlg1=           0
         NFxFlg=    40000000 DoJE=F BraDBF=F KetDBF=T FulRan=T
         Omega=  0.000000  0.000000  1.000000  0.000000  0.000000 ICntrl=    6100 IOpCl=  0
         NMat0=    1 NMatS0=    1 NMatT0=    0 NMatD0=    1 NMtDS0=    0 NMtDT0=    0
         I1Cent=           7 NGrid=        2396.
 Symmetry not used in FoFCou.
          There are     3 degrees of freedom in the 1st order CPHF.  IDoFFX=0.
      3 vectors produced by pass  0 Test12= 1.44D-12 3.33D-08 XBig12= 5.12D+02 9.15D+00.
 AX will form     3 AO Fock derivatives at one time.
      3 vectors produced by pass  1 Test12= 1.44D-12 3.33D-08 XBig12= 1.01D+00 2.88D-01.
      3 vectors produced by pass  2 Test12= 1.44D-12 3.33D-08 XBig12= 3.85D-03 3.14D-02.
      3 vectors produced by pass  3 Test12= 1.44D-12 3.33D-08 XBig12= 1.45D-05 1.29D-03.
      3 vectors produced by pass  4 Test12= 1.44D-12 3.33D-08 XBig12= 3.71D-08 5.10D-05.
      3 vectors produced by pass  5 Test12= 1.44D-12 3.33D-08 XBig12= 2.09D-10 4.39D-06.
      3 vectors produced by pass  6 Test12= 1.44D-12 3.33D-08 XBig12= 9.13D-13 1.61D-07.
 Inverted reduced A of dimension    21 with in-core refinement.
 Calculating GIAO nuclear magnetic shielding tensors.
 SCF GIAO Magnetic shielding tensor (ppm):
  1  O    Isotropic =   195.1079   Anisotropy =    96.7369
   XX=   163.8543   YX=    21.4222   ZX=    17.9253
   XY=    25.7273   YY=   165.6594   ZY=    -2.1477
   XZ=    15.6837   YZ=   -23.3338   ZZ=   255.8099
   Eigenvalues:   137.4552   188.2693   259.5991
  2  C    Isotropic =    19.9715   Anisotropy =   145.0919
   XX=   -25.8122   YX=   -36.5295   ZX=    23.7895
   XY=   -30.0527   YY=   -26.0395   ZY=    -9.4063
   XZ=    24.1907   YZ=    -1.3625   ZZ=   111.7663
   Eigenvalues:   -60.2565     3.4717   116.6994
  3  C    Isotropic =    60.8080   Anisotropy =   135.7530
   XX=     5.2817   YX=    17.1811   ZX=    35.7612
   XY=     3.4164   YY=    35.3575   ZY=    -8.8995
   XZ=    34.2219   YZ=   -18.9641   ZZ=   141.7847
   Eigenvalues:    -7.3704    38.4844   151.3100
  4  C    Isotropic =     8.7981   Anisotropy =    83.5692
   XX=   -34.7069   YX=   -24.9452   ZX=    56.8676
   XY=   -28.5969   YY=    43.0834   ZY=    23.7128
   XZ=    59.0041   YZ=    34.3745   ZZ=    18.0179
   Eigenvalues:   -83.5984    45.4819    64.5109
  5  N    Isotropic =    10.2635   Anisotropy =   271.5823
   XX=  -117.0588   YX=    30.8528   ZX=   101.8836
   XY=    65.1670   YY=    18.8179   ZY=    45.9048
   XZ=    96.4403   YZ=    64.8786   ZZ=   129.0313
   Eigenvalues:  -156.5241    -4.0039   191.3183
  6  C    Isotropic =   103.9217   Anisotropy =    22.9693
   XX=   119.0209   YX=   -13.2141   ZX=     1.1018
   XY=     9.7868   YY=    98.3938   ZY=    -7.7682
   XZ=    -0.8144   YZ=   -16.4570   ZZ=    94.3505
   Eigenvalues:    84.0634   108.4671   119.2346
  7  C    Isotropic =   105.8445   Anisotropy =    47.0854
   XX=    84.6545   YX=   -10.3906   ZX=     6.0050
   XY=   -11.6862   YY=   131.1963   ZY=   -10.5476
   XZ=     6.4971   YZ=    -9.5898   ZZ=   101.6827
   Eigenvalues:    81.3281    98.9707   137.2348
  8  O    Isotropic =   254.8975   Anisotropy =    51.1262
   XX=   221.1179   YX=    -3.5818   ZX=     9.7076
   XY=   -11.4082   YY=   287.1518   ZY=     6.6875
   XZ=    25.4781   YZ=     7.7922   ZZ=   256.4229
   Eigenvalues:   212.5836   263.1273   288.9817
  9  C    Isotropic =   140.2885   Anisotropy =    41.8871
   XX=   116.8115   YX=    -5.4095   ZX=    -6.1590
   XY=     6.0564   YY=   167.9173   ZY=    -7.0480
   XZ=    -6.1565   YZ=     1.0564   ZZ=   136.1366
   Eigenvalues:   115.0109   137.6414   168.2132
 10  C    Isotropic =    -0.2760   Anisotropy =   114.9650
   XX=   -45.2813   YX=   -71.9684   ZX=    -5.2778
   XY=   -38.0639   YY=   -30.0511   ZY=    10.6069
   XZ=    -6.7155   YZ=     6.5788   ZZ=    74.5043
   Eigenvalues:   -93.2144    16.0191    76.3673
 11  O    Isotropic =   102.2027   Anisotropy =   177.6006
   XX=   165.1855   YX=   168.9111   ZX=   -18.6706
   XY=    53.5415   YY=    -4.7904   ZY=    28.0734
   XZ=    -1.0298   YZ=    36.4971   ZZ=   146.2131
   Eigenvalues:   -65.0358   151.0409   220.6031
 12  O    Isotropic =   -76.4395   Anisotropy =   483.7870
   XX=  -284.5368   YX=     2.2576   ZX=   -71.3467
   XY=   -21.7768   YY=  -174.2575   ZY=    62.9128
   XZ=   -56.0054   YZ=    57.5131   ZZ=   229.4759
   Eigenvalues:  -292.3592  -183.0445   246.0852
 13  C    Isotropic =    99.6187   Anisotropy =    73.9690
   XX=   117.8549   YX=   -30.2802   ZX=   -17.6962
   XY=   -30.7637   YY=   108.4914   ZY=     6.3826
   XZ=   -28.7078   YZ=    -2.2265   ZZ=    72.5097
   Eigenvalues:    60.0114    89.9133   148.9313
 14  C    Isotropic =   168.1519   Anisotropy =    16.5892
   XX=   173.1533   YX=     6.3727   ZX=    -2.1097
   XY=    10.8220   YY=   166.8567   ZY=     3.9170
   XZ=    -4.0440   YZ=     1.9665   ZZ=   164.4457
   Eigenvalues:   158.0929   167.1515   179.2114
 15  O    Isotropic =   113.3699   Anisotropy =   145.0929
   XX=    88.8338   YX=   117.7311   ZX=    -9.5030
   XY=    76.4758   YY=   110.9167   ZY=   -55.8222
   XZ=   -27.2870   YZ=     9.5345   ZZ=   140.3591
   Eigenvalues:     2.1247   127.8865   210.0985
 16  C    Isotropic =    47.1010   Anisotropy =   151.1004
   XX=    43.5835   YX=     7.4774   ZX=    24.0335
   XY=     5.8610   YY=   -44.9183   ZY=   -17.7334
   XZ=    14.8610   YZ=   -19.4984   ZZ=   142.6377
   Eigenvalues:   -47.5645    41.0329   147.8346
 17  C    Isotropic =    46.5898   Anisotropy =   101.0301
   XX=    13.3300   YX=   -58.8707   ZX=    17.0538
   XY=   -56.7365   YY=    15.6412   ZY=     4.7501
   XZ=    15.3220   YZ=     1.9862   ZZ=   110.7981
   Eigenvalues:   -44.5817    70.4078   113.9432
 18  Cl   Isotropic =   709.5141   Anisotropy =   494.9027
   XX=   800.9652   YX=   250.7245   ZX=   -33.5051
   XY=   252.0647   YY=   762.4439   ZY=   -37.7122
   XZ=   -35.5154   YZ=   -39.6310   ZZ=   565.1334
   Eigenvalues:   528.7945   560.2986  1039.4493
 19  C    Isotropic =    43.3579   Anisotropy =   162.0231
   XX=   -35.9887   YX=    25.4993   ZX=    40.8415
   XY=    24.7124   YY=    24.6805   ZY=   -13.6153
   XZ=    43.0289   YZ=   -14.9071   ZZ=   141.3818
   Eigenvalues:   -55.0171    33.7175   151.3733
 20  C    Isotropic =    58.1251   Anisotropy =   147.9119
   XX=    48.4527   YX=     9.3023   ZX=    22.3394
   XY=    11.1951   YY=   -23.6809   ZY=   -16.5137
   XZ=    26.4318   YZ=   -22.3892   ZZ=   149.6034
   Eigenvalues:   -28.0900    45.7322   156.7330
 21  H    Isotropic =    24.1233   Anisotropy =    18.1638
   XX=    33.7199   YX=    -6.0534   ZX=     0.3696
   XY=    -4.7514   YY=    24.0407   ZY=     0.9979
   XZ=     3.8572   YZ=     1.3275   ZZ=    14.6093
   Eigenvalues:    14.0266    22.1107    36.2325
 22  H    Isotropic =    27.3148   Anisotropy =     4.6277
   XX=    25.3056   YX=    -1.7060   ZX=     0.3531
   XY=    -1.0469   YY=    29.1179   ZY=     0.9373
   XZ=    -0.6609   YZ=     2.2144   ZZ=    27.5209
   Eigenvalues:    24.8088    26.7357    30.3999
 23  H    Isotropic =    27.4001   Anisotropy =     3.7001
   XX=    28.3312   YX=    -0.1747   ZX=    -0.3148
   XY=     0.6315   YY=    28.4516   ZY=    -2.7150
   XZ=    -1.0967   YZ=    -1.8490   ZZ=    25.4174
   Eigenvalues:    24.1306    28.2028    29.8668
 24  H    Isotropic =    29.4340   Anisotropy =    13.5668
   XX=    33.7412   YX=     4.2617   ZX=    -1.4774
   XY=     5.3795   YY=    31.8102   ZY=    -3.5505
   XZ=    -0.6431   YZ=    -4.7432   ZZ=    22.7506
   Eigenvalues:    21.0856    28.7379    38.4785
 25  H    Isotropic =    29.2149   Anisotropy =     1.9773
   XX=    30.4036   YX=    -0.8535   ZX=     0.6345
   XY=     1.4940   YY=    27.5900   ZY=    -0.1761
   XZ=     0.0381   YZ=    -1.2041   ZZ=    29.6513
   Eigenvalues:    27.3268    29.7849    30.5332
 26  H    Isotropic =    29.0358   Anisotropy =     6.1397
   XX=    27.1818   YX=     0.9853   ZX=     2.4189
   XY=    -0.8774   YY=    28.8711   ZY=    -0.8556
   XZ=     4.2974   YZ=    -0.9468   ZZ=    31.0546
   Eigenvalues:    25.1734    28.8051    33.1289
 27  H    Isotropic =    24.5808   Anisotropy =    11.4186
   XX=    22.2440   YX=     7.1069   ZX=    -0.0959
   XY=     2.9054   YY=    29.6225   ZY=     0.5128
   XZ=     0.8804   YZ=     0.5526   ZZ=    21.8758
   Eigenvalues:    19.7089    21.8402    32.1932
 28  H    Isotropic =    26.8857   Anisotropy =     6.6845
   XX=    25.3072   YX=    -0.7207   ZX=     0.1856
   XY=    -0.3331   YY=    24.9366   ZY=     2.7665
   XZ=    -1.3518   YZ=     1.8425   ZZ=    30.4133
   Eigenvalues:    24.0240    25.2912    31.3420
 29  H    Isotropic =    30.6278   Anisotropy =     8.0338
   XX=    28.1271   YX=     2.6919   ZX=     1.7288
   XY=     3.1111   YY=    28.8483   ZY=     2.0112
   XZ=     0.6183   YZ=     1.7955   ZZ=    34.9078
   Eigenvalues:    25.5469    30.3527    35.9836
 30  H    Isotropic =    30.2032   Anisotropy =     9.7984
   XX=    28.1637   YX=     1.4545   ZX=    -1.3706
   XY=     1.0016   YY=    31.4868   ZY=    -5.3071
   XZ=    -1.2949   YZ=    -4.9413   ZZ=    30.9590
   Eigenvalues:    26.0837    27.7904    36.7354
 31  H    Isotropic =    30.4313   Anisotropy =     9.9030
   XX=    33.9763   YX=    -2.0538   ZX=    -4.2328
   XY=    -1.8998   YY=    28.2129   ZY=     0.2501
   XZ=    -4.6280   YZ=     0.7646   ZZ=    29.1046
   Eigenvalues:    26.2771    27.9834    37.0333
 32  H    Isotropic =    23.6028   Anisotropy =    11.7324
   XX=    31.0589   YX=     1.0297   ZX=    -2.1208
   XY=     1.7699   YY=    20.9876   ZY=    -0.3237
   XZ=    -0.8979   YZ=     0.4582   ZZ=    18.7619
   Eigenvalues:    18.5552    20.8288    31.4244
 33  H    Isotropic =    24.0470   Anisotropy =     7.0863
   XX=    23.5519   YX=     1.7642   ZX=    -0.4896
   XY=     0.9985   YY=    28.4031   ZY=     0.3395
   XZ=    -0.2351   YZ=     0.1443   ZZ=    20.1861
   Eigenvalues:    20.1282    23.2417    28.7712
 34  H    Isotropic =    24.5779   Anisotropy =     5.8679
   XX=    28.1471   YX=     0.1083   ZX=    -1.3158
   XY=     0.8275   YY=    24.3119   ZY=    -0.0324
   XZ=    -1.5837   YZ=     0.0718   ZZ=    21.2748
   Eigenvalues:    20.9777    24.2662    28.4899
 End of Minotr Frequency-dependent properties file   721 does not exist.
 End of Minotr Frequency-dependent properties file   722 does not exist.

 **********************************************************************

            Population analysis using the SCF density.

 **********************************************************************

 Orbital symmetries:
       Occupied  (A) (A) (A) (A) (A) (A) (A) (A) (A) (A) (A) (A)
                 (A) (A) (A) (A) (A) (A) (A) (A) (A) (A) (A) (A)
                 (A) (A) (A) (A) (A) (A) (A) (A) (A) (A) (A) (A)
                 (A) (A) (A) (A) (A) (A) (A) (A) (A) (A) (A) (A)
                 (A) (A) (A) (A) (A) (A) (A) (A) (A) (A) (A) (A)
                 (A) (A) (A) (A) (A) (A) (A) (A) (A) (A) (A) (A)
                 (A) (A) (A) (A) (A) (A)
       Virtual   (A) (A) (A) (A) (A) (A) (A) (A) (A) (A) (A) (A)
                 (A) (A) (A) (A) (A) (A) (A) (A) (A) (A) (A) (A)
                 (A) (A) (A) (A) (A) (A) (A) (A) (A) (A) (A) (A)
                 (A) (A) (A) (A) (A) (A) (A) (A) (A) (A) (A) (A)
                 (A) (A) (A) (A) (A) (A) (A) (A) (A) (A) (A) (A)
                 (A) (A) (A) (A) (A) (A) (A) (A) (A) (A) (A) (A)
                 (A) (A) (A) (A) (A) (A) (A) (A) (A) (A) (A) (A)
                 (A) (A) (A) (A) (A) (A) (A) (A) (A) (A) (A) (A)
                 (A) (A) (A) (A) (A) (A) (A) (A) (A) (A) (A) (A)
                 (A) (A) (A) (A) (A) (A) (A) (A) (A) (A) (A) (A)
                 (A) (A) (A) (A) (A) (A) (A) (A) (A) (A) (A) (A)
                 (A) (A) (A) (A) (A) (A) (A) (A) (A) (A) (A) (A)
                 (A) (A) (A) (A) (A) (A) (A) (A) (A) (A) (A) (A)
                 (A) (A) (A) (A) (A) (A) (A) (A) (A) (A) (A) (A)
                 (A) (A) (A) (A) (A) (A) (A) (A) (A) (A) (A) (A)
                 (A) (A) (A) (A) (A) (A) (A) (A) (A) (A) (A) (A)
                 (A) (A) (A) (A) (A) (A) (A) (A) (A) (A) (A) (A)
                 (A) (A) (A) (A) (A) (A) (A) (A) (A) (A) (A) (A)
                 (A) (A) (A) (A) (A) (A) (A) (A) (A) (A) (A) (A)
                 (A) (A) (A) (A) (A) (A) (A) (A) (A) (A) (A) (A)
                 (A) (A) (A) (A) (A) (A) (A) (A) (A) (A) (A) (A)
                 (A) (A) (A) (A) (A) (A) (A) (A) (A) (A) (A) (A)
                 (A) (A) (A) (A) (A) (A) (A) (A) (A) (A) (A) (A)
                 (A) (A) (A) (A) (A) (A) (A) (A) (A) (A) (A) (A)
                 (A) (A) (A) (A) (A) (A) (A) (A) (A) (A) (A) (A)
                 (A) (A) (A) (A) (A) (A) (A) (A) (A) (A) (A) (A)
                 (A) (A) (A) (A) (A) (A) (A) (A) (A) (A) (A) (A)
                 (A) (A) (A) (A) (A) (A) (A) (A) (A) (A) (A) (A)
                 (A) (A) (A) (A) (A) (A) (A) (A) (A) (A) (A) (A)
                 (A) (A) (A) (A) (A) (A) (A) (A) (A) (A) (A) (A)
                 (A) (A) (A) (A) (A) (A) (A) (A) (A) (A) (A) (A)
                 (A) (A) (A) (A) (A) (A) (A) (A) (A) (A) (A) (A)
                 (A) (A) (A) (A) (A) (A) (A) (A) (A) (A) (A) (A)
                 (A) (A) (A) (A) (A) (A) (A) (A) (A) (A) (A) (A)
                 (A) (A) (A) (A) (A) (A) (A) (A) (A) (A) (A) (A)
                 (A) (A) (A) (A) (A) (A) (A) (A) (A) (A) (A) (A)
                 (A) (A) (A) (A) (A) (A) (A) (A) (A) (A) (A) (A)
                 (A) (A) (A) (A) (A) (A) (A) (A) (A) (A) (A) (A)
                 (A) (A) (A) (A) (A) (A) (A) (A) (A) (A) (A) (A)
                 (A) (A) (A) (A) (A) (A) (A) (A) (A) (A) (A) (A)
                 (A) (A) (A) (A) (A) (A) (A) (A) (A) (A) (A) (A)
                 (A) (A) (A) (A) (A) (A) (A) (A) (A) (A) (A) (A)
                 (A) (A) (A) (A) (A) (A) (A) (A) (A) (A) (A) (A)
                 (A) (A) (A) (A) (A) (A) (A) (A) (A) (A) (A) (A)
                 (A) (A) (A) (A) (A) (A) (A) (A) (A) (A) (A) (A)
                 (A) (A) (A) (A) (A) (A) (A) (A) (A) (A) (A) (A)
 The electronic state is 1-A.
 Alpha  occ. eigenvalues -- -101.55950 -19.18684 -19.17147 -19.15713 -19.13693
 Alpha  occ. eigenvalues --  -19.13268 -14.30742 -10.32514 -10.28027 -10.25562
 Alpha  occ. eigenvalues --  -10.24061 -10.23872 -10.23801 -10.21175 -10.20517
 Alpha  occ. eigenvalues --  -10.19710 -10.19567 -10.18629 -10.18585 -10.16676
 Alpha  occ. eigenvalues --   -9.47396  -7.23832  -7.22893  -7.22866  -1.12881
 Alpha  occ. eigenvalues --   -1.10987  -1.07300  -1.04244  -1.03767  -0.92314
 Alpha  occ. eigenvalues --   -0.90014  -0.84941  -0.81736  -0.78674  -0.77138
 Alpha  occ. eigenvalues --   -0.74065  -0.71425  -0.68228  -0.64745  -0.62548
 Alpha  occ. eigenvalues --   -0.62026  -0.60358  -0.59028  -0.56020  -0.53272
 Alpha  occ. eigenvalues --   -0.52337  -0.51512  -0.50847  -0.50655  -0.48385
 Alpha  occ. eigenvalues --   -0.47911  -0.46643  -0.46407  -0.45506  -0.44532
 Alpha  occ. eigenvalues --   -0.43879  -0.43083  -0.42115  -0.41255  -0.40902
 Alpha  occ. eigenvalues --   -0.40114  -0.39788  -0.39052  -0.38796  -0.38606
 Alpha  occ. eigenvalues --   -0.37013  -0.36541  -0.35482  -0.34599  -0.34113
 Alpha  occ. eigenvalues --   -0.32364  -0.32253  -0.31372  -0.29824  -0.29187
 Alpha  occ. eigenvalues --   -0.28212  -0.25836  -0.23508
 Alpha virt. eigenvalues --   -0.05597  -0.02599  -0.02160   0.00061   0.00706
 Alpha virt. eigenvalues --    0.01079   0.01540   0.01755   0.02447   0.02843
 Alpha virt. eigenvalues --    0.03635   0.04111   0.04383   0.04747   0.05114
 Alpha virt. eigenvalues --    0.05809   0.05995   0.06716   0.07371   0.07623
 Alpha virt. eigenvalues --    0.08057   0.08337   0.08597   0.09252   0.09755
 Alpha virt. eigenvalues --    0.10201   0.10365   0.10772   0.11215   0.11948
 Alpha virt. eigenvalues --    0.12222   0.12502   0.12662   0.13097   0.13548
 Alpha virt. eigenvalues --    0.13893   0.14207   0.14718   0.14845   0.15141
 Alpha virt. eigenvalues --    0.15350   0.15513   0.15822   0.16482   0.16720
 Alpha virt. eigenvalues --    0.17186   0.17558   0.17809   0.18180   0.18282
 Alpha virt. eigenvalues --    0.18797   0.19215   0.19545   0.19768   0.19920
 Alpha virt. eigenvalues --    0.20110   0.20358   0.20911   0.21206   0.21576
 Alpha virt. eigenvalues --    0.21675   0.22134   0.22358   0.22592   0.23036
 Alpha virt. eigenvalues --    0.23497   0.23770   0.24013   0.24738   0.24832
 Alpha virt. eigenvalues --    0.25385   0.25767   0.25842   0.26158   0.26814
 Alpha virt. eigenvalues --    0.27187   0.27339   0.27680   0.28338   0.28483
 Alpha virt. eigenvalues --    0.28866   0.29333   0.29908   0.30180   0.30348
 Alpha virt. eigenvalues --    0.30719   0.31526   0.31843   0.32464   0.32811
 Alpha virt. eigenvalues --    0.32898   0.33202   0.33493   0.34065   0.34376
 Alpha virt. eigenvalues --    0.34973   0.35239   0.35849   0.36229   0.36606
 Alpha virt. eigenvalues --    0.36956   0.37533   0.38220   0.38551   0.39025
 Alpha virt. eigenvalues --    0.39876   0.40402   0.41418   0.42411   0.42576
 Alpha virt. eigenvalues --    0.42983   0.43511   0.44049   0.44654   0.45262
 Alpha virt. eigenvalues --    0.45543   0.46140   0.46155   0.46478   0.47650
 Alpha virt. eigenvalues --    0.48028   0.48379   0.49400   0.50353   0.51016
 Alpha virt. eigenvalues --    0.51863   0.52119   0.52657   0.53589   0.53709
 Alpha virt. eigenvalues --    0.54321   0.54541   0.54834   0.55978   0.56163
 Alpha virt. eigenvalues --    0.57174   0.57776   0.58571   0.59117   0.59402
 Alpha virt. eigenvalues --    0.60032   0.60636   0.61354   0.61703   0.62231
 Alpha virt. eigenvalues --    0.63140   0.63489   0.64410   0.64793   0.65353
 Alpha virt. eigenvalues --    0.65870   0.66289   0.66888   0.67825   0.68605
 Alpha virt. eigenvalues --    0.69329   0.69620   0.69919   0.70231   0.70664
 Alpha virt. eigenvalues --    0.71340   0.71738   0.72082   0.72939   0.73705
 Alpha virt. eigenvalues --    0.74228   0.74657   0.75335   0.76235   0.76415
 Alpha virt. eigenvalues --    0.77124   0.77526   0.78282   0.79349   0.79537
 Alpha virt. eigenvalues --    0.79893   0.80934   0.81525   0.82237   0.83024
 Alpha virt. eigenvalues --    0.83169   0.83636   0.84575   0.86140   0.86373
 Alpha virt. eigenvalues --    0.87782   0.88005   0.88599   0.89801   0.90789
 Alpha virt. eigenvalues --    0.91343   0.92179   0.93265   0.94070   0.94284
 Alpha virt. eigenvalues --    0.95831   0.96084   0.97198   0.97990   0.98383
 Alpha virt. eigenvalues --    0.99824   1.01632   1.02418   1.02629   1.03757
 Alpha virt. eigenvalues --    1.05100   1.05581   1.05959   1.06225   1.07489
 Alpha virt. eigenvalues --    1.07585   1.09087   1.09745   1.10357   1.11040
 Alpha virt. eigenvalues --    1.11828   1.13297   1.13811   1.14612   1.15464
 Alpha virt. eigenvalues --    1.15957   1.16729   1.17389   1.18124   1.19361
 Alpha virt. eigenvalues --    1.19993   1.20517   1.20754   1.21253   1.21764
 Alpha virt. eigenvalues --    1.22839   1.24798   1.25119   1.25668   1.26270
 Alpha virt. eigenvalues --    1.27086   1.27823   1.29145   1.29538   1.30505
 Alpha virt. eigenvalues --    1.30967   1.32012   1.32447   1.33181   1.34711
 Alpha virt. eigenvalues --    1.35231   1.35970   1.36323   1.37381   1.38036
 Alpha virt. eigenvalues --    1.39156   1.40196   1.40489   1.41145   1.41999
 Alpha virt. eigenvalues --    1.43121   1.43836   1.44860   1.45976   1.47584
 Alpha virt. eigenvalues --    1.48262   1.48801   1.50086   1.52007   1.53375
 Alpha virt. eigenvalues --    1.53663   1.54060   1.55607   1.57125   1.58837
 Alpha virt. eigenvalues --    1.59678   1.59891   1.61635   1.62345   1.62943
 Alpha virt. eigenvalues --    1.64023   1.66009   1.67199   1.67739   1.70090
 Alpha virt. eigenvalues --    1.70796   1.71457   1.72792   1.73174   1.74587
 Alpha virt. eigenvalues --    1.76713   1.77170   1.78063   1.79834   1.81196
 Alpha virt. eigenvalues --    1.81962   1.83490   1.85122   1.86300   1.87037
 Alpha virt. eigenvalues --    1.89859   1.91992   1.92250   1.92481   1.93518
 Alpha virt. eigenvalues --    1.95589   1.96340   1.99640   1.99953   2.03328
 Alpha virt. eigenvalues --    2.03838   2.04545   2.07313   2.07604   2.09083
 Alpha virt. eigenvalues --    2.09563   2.09937   2.10797   2.13052   2.14373
 Alpha virt. eigenvalues --    2.15325   2.17944   2.18520   2.20297   2.22870
 Alpha virt. eigenvalues --    2.24786   2.26068   2.27119   2.28295   2.28770
 Alpha virt. eigenvalues --    2.30177   2.30844   2.31896   2.33035   2.35883
 Alpha virt. eigenvalues --    2.36147   2.36831   2.37662   2.38369   2.40097
 Alpha virt. eigenvalues --    2.41010   2.41687   2.42906   2.44089   2.44696
 Alpha virt. eigenvalues --    2.45762   2.47823   2.49214   2.49334   2.50614
 Alpha virt. eigenvalues --    2.51269   2.54485   2.56163   2.57312   2.58894
 Alpha virt. eigenvalues --    2.59682   2.63794   2.64010   2.64576   2.64901
 Alpha virt. eigenvalues --    2.65683   2.65786   2.68401   2.70517   2.71372
 Alpha virt. eigenvalues --    2.74263   2.75749   2.77770   2.80120   2.81203
 Alpha virt. eigenvalues --    2.83135   2.84543   2.84713   2.85574   2.86666
 Alpha virt. eigenvalues --    2.88206   2.89863   2.91033   2.92515   2.93822
 Alpha virt. eigenvalues --    2.95072   2.96244   2.98456   3.00781   3.01879
 Alpha virt. eigenvalues --    3.04594   3.05298   3.07748   3.08604   3.09999
 Alpha virt. eigenvalues --    3.11699   3.12780   3.13520   3.15665   3.18760
 Alpha virt. eigenvalues --    3.19913   3.21135   3.23750   3.24093   3.27635
 Alpha virt. eigenvalues --    3.27771   3.29819   3.30851   3.34415   3.34870
 Alpha virt. eigenvalues --    3.36108   3.36612   3.37205   3.38271   3.39812
 Alpha virt. eigenvalues --    3.40662   3.42530   3.43080   3.43668   3.45137
 Alpha virt. eigenvalues --    3.46865   3.47510   3.49087   3.49845   3.50307
 Alpha virt. eigenvalues --    3.50881   3.51818   3.52708   3.53501   3.54378
 Alpha virt. eigenvalues --    3.56383   3.56858   3.57269   3.58376   3.59050
 Alpha virt. eigenvalues --    3.60189   3.60613   3.61523   3.62917   3.64499
 Alpha virt. eigenvalues --    3.65903   3.66158   3.66672   3.67828   3.68513
 Alpha virt. eigenvalues --    3.69729   3.70136   3.72616   3.73293   3.73723
 Alpha virt. eigenvalues --    3.74941   3.75907   3.77305   3.78930   3.79289
 Alpha virt. eigenvalues --    3.80980   3.81833   3.82330   3.83158   3.85373
 Alpha virt. eigenvalues --    3.87130   3.89523   3.90532   3.91878   3.93785
 Alpha virt. eigenvalues --    3.96673   3.97813   3.98512   4.02466   4.03925
 Alpha virt. eigenvalues --    4.06420   4.10570   4.11061   4.12820   4.16552
 Alpha virt. eigenvalues --    4.20057   4.23343   4.25439   4.27309   4.29194
 Alpha virt. eigenvalues --    4.36168   4.38608   4.39945   4.43436   4.46548
 Alpha virt. eigenvalues --    4.54679   4.57970   4.58660   4.73582   4.75945
 Alpha virt. eigenvalues --    4.83026   5.03349   5.05268   5.07011   5.11779
 Alpha virt. eigenvalues --    5.14923   5.17749   5.19029   5.22841   5.25047
 Alpha virt. eigenvalues --    5.26096   5.29822   5.42432   5.45736   5.48479
 Alpha virt. eigenvalues --    5.53994   5.58976   5.59708   5.79964   5.81809
 Alpha virt. eigenvalues --    5.89001   6.01934   6.13876   6.79101   6.83766
 Alpha virt. eigenvalues --    6.86897   6.88952   6.90413   6.97409   6.98452
 Alpha virt. eigenvalues --    6.99970   7.01630   7.02176   7.03047   7.07175
 Alpha virt. eigenvalues --    7.09767   7.12810   7.14313   7.18492   7.19178
 Alpha virt. eigenvalues --    7.25997   7.29649   7.30737   7.33221   7.36104
 Alpha virt. eigenvalues --    7.37448   7.40781   7.53421   9.89722  23.66075
 Alpha virt. eigenvalues --   23.90827  23.93750  23.96333  23.99528  24.00771
 Alpha virt. eigenvalues --   24.01447  24.05244  24.06975  24.09403  24.11895
 Alpha virt. eigenvalues --   24.14722  24.33001  25.87507  26.27591  27.40333
 Alpha virt. eigenvalues --   35.75220  49.95933  49.99966  50.02731  50.03720
 Alpha virt. eigenvalues --   50.08307 215.89885
          Condensed to atoms (all electrons):
              1          2          3          4          5          6
     1  O    8.345081   0.243053   0.122136   0.003684  -0.006928   0.026358
     2  C    0.243053  11.246252  -0.050737  -0.980348  -0.058889  -0.112932
     3  C    0.122136  -0.050737   9.040157   0.495463  -0.278963   0.346020
     4  C    0.003684  -0.980348   0.495463   8.418330  -0.003297   0.462094
     5  N   -0.006928  -0.058889  -0.278963  -0.003297   7.243674  -0.280512
     6  C    0.026358  -0.112932   0.346020   0.462094  -0.280512   9.175469
     7  C    0.003488  -0.082252   0.125940   0.254945  -0.085689  -1.655545
     8  O    0.000001   0.000006  -0.004196  -0.023813   0.025420   0.026044
     9  C   -0.000775   0.082979  -0.016192  -0.149708  -0.139079   0.734789
    10  C   -0.005552   0.016627  -0.117172  -0.109578   0.052923  -0.101670
    11  O    0.000819  -0.009623   0.006845   0.011528   0.000413   0.029908
    12  O   -0.008302   0.054185   0.010520  -0.077032  -0.006705  -0.029356
    13  C   -0.057827   0.250646  -0.692704  -1.753822   0.750614  -2.927774
    14  C   -0.006830   0.023534  -0.051583  -0.471800   0.116162  -0.038471
    15  O   -0.014368   0.039372  -0.093603   0.279750  -0.066434  -0.044573
    16  C    0.114203  -0.012275   1.520218  -1.373576  -0.004355   0.319295
    17  C   -0.036151  -1.713245  -1.467980   0.351081   0.064750  -0.151574
    18  Cl   0.000303   0.086569   0.074589  -0.051414   0.000868   0.000366
    19  C    0.037964   0.146068  -1.330950  -0.577766  -0.005937   0.021517
    20  C   -0.453376  -2.796320  -1.776741   0.754028   0.044085  -0.195148
    21  H    0.232344   0.070918  -0.152805  -0.028830   0.004290  -0.049074
    22  H    0.000018  -0.003172  -0.002718  -0.005177  -0.054471   0.519554
    23  H   -0.000006  -0.001073   0.001486   0.006380   0.009872  -0.134739
    24  H   -0.000007   0.002074   0.000845  -0.004478   0.021594  -0.097918
    25  H   -0.000180   0.001599   0.007901   0.013052   0.003058  -0.024884
    26  H    0.000000   0.000076   0.002655  -0.005961   0.001636   0.009593
    27  H    0.000343  -0.001816   0.003368  -0.004336   0.000298   0.005219
    28  H   -0.000499   0.020591  -0.003643  -0.009201  -0.001673  -0.048291
    29  H   -0.000213   0.003494   0.000127   0.012510  -0.005302   0.029574
    30  H    0.000431  -0.005058   0.004080  -0.023586   0.001427  -0.020018
    31  H   -0.000032   0.000270  -0.000627  -0.004065   0.000844  -0.000798
    32  H   -0.000487   0.015929  -0.015108   0.004528   0.008031   0.000522
    33  H   -0.000775   0.021391  -0.010584  -0.000614  -0.000046  -0.000023
    34  H    0.002174  -0.179420   0.007474   0.007913  -0.000002   0.000264
              7          8          9         10         11         12
     1  O    0.003488   0.000001  -0.000775  -0.005552   0.000819  -0.008302
     2  C   -0.082252   0.000006   0.082979   0.016627  -0.009623   0.054185
     3  C    0.125940  -0.004196  -0.016192  -0.117172   0.006845   0.010520
     4  C    0.254945  -0.023813  -0.149708  -0.109578   0.011528  -0.077032
     5  N   -0.085689   0.025420  -0.139079   0.052923   0.000413  -0.006705
     6  C   -1.655545   0.026044   0.734789  -0.101670   0.029908  -0.029356
     7  C    8.094954   0.082023  -1.259397  -0.029113  -0.064929   0.098656
     8  O    0.082023   8.185171  -0.058623   0.013243  -0.002228  -0.000616
     9  C   -1.259397  -0.058623   6.763467  -0.092418  -0.054242  -0.088538
    10  C   -0.029113   0.013243  -0.092418   5.142415   0.431476   0.400935
    11  O   -0.064929  -0.002228  -0.054242   0.431476   7.872921  -0.118607
    12  O    0.098656  -0.000616  -0.088538   0.400935  -0.118607   8.284321
    13  C    0.216349   0.029355  -0.220835   0.184847  -0.005747   0.054354
    14  C   -0.302471   0.018247   0.140828  -0.135514  -0.021905   0.001903
    15  O    0.036667  -0.000231   0.015739   0.036688  -0.001197  -0.017594
    16  C    0.010852  -0.002144  -0.036404  -0.090070   0.001438  -0.021792
    17  C   -0.010459   0.000427  -0.014122  -0.006486   0.000432  -0.001374
    18  Cl  -0.000454  -0.000009   0.000121  -0.000349   0.000001   0.000022
    19  C    0.005846   0.000025  -0.001471  -0.002766  -0.000194   0.000032
    20  C   -0.054620   0.000058   0.009692   0.065764  -0.001496  -0.000918
    21  H    0.005942  -0.000009  -0.001164  -0.001692  -0.000968   0.025022
    22  H   -0.046586  -0.005607  -0.012794   0.000073  -0.000025  -0.000259
    23  H    0.573071  -0.053115  -0.063762  -0.019075  -0.000125   0.000262
    24  H    0.099001   0.255665  -0.016756   0.001708  -0.000043   0.000108
    25  H   -0.021691  -0.002959   0.458450  -0.063579   0.002808  -0.005240
    26  H    0.002775  -0.001803   0.380770  -0.060539  -0.004170   0.004616
    27  H    0.007662   0.000056  -0.014414  -0.033381   0.279817   0.035356
    28  H    0.019426  -0.000871   0.002962   0.004159   0.000001  -0.000101
    29  H   -0.016500   0.000662  -0.005670   0.023398   0.008803  -0.004530
    30  H    0.010106  -0.000059  -0.002935   0.002578   0.000064   0.000481
    31  H   -0.006791  -0.000037   0.000391   0.001339  -0.000328  -0.000054
    32  H   -0.000083   0.000023   0.000500   0.000407  -0.000001  -0.000051
    33  H   -0.000007   0.000000   0.000003  -0.000001   0.000000   0.000000
    34  H   -0.000012   0.000000  -0.000036   0.000060   0.000000   0.000016
             13         14         15         16         17         18
     1  O   -0.057827  -0.006830  -0.014368   0.114203  -0.036151   0.000303
     2  C    0.250646   0.023534   0.039372  -0.012275  -1.713245   0.086569
     3  C   -0.692704  -0.051583  -0.093603   1.520218  -1.467980   0.074589
     4  C   -1.753822  -0.471800   0.279750  -1.373576   0.351081  -0.051414
     5  N    0.750614   0.116162  -0.066434  -0.004355   0.064750   0.000868
     6  C   -2.927774  -0.038471  -0.044573   0.319295  -0.151574   0.000366
     7  C    0.216349  -0.302471   0.036667   0.010852  -0.010459  -0.000454
     8  O    0.029355   0.018247  -0.000231  -0.002144   0.000427  -0.000009
     9  C   -0.220835   0.140828   0.015739  -0.036404  -0.014122   0.000121
    10  C    0.184847  -0.135514   0.036688  -0.090070  -0.006486  -0.000349
    11  O   -0.005747  -0.021905  -0.001197   0.001438   0.000432   0.000001
    12  O    0.054354   0.001903  -0.017594  -0.021792  -0.001374   0.000022
    13  C    9.262710   0.274707   0.091686  -0.820096   0.176443   0.002223
    14  C    0.274707   5.950205  -0.060885  -0.036543   0.008922   0.000193
    15  O    0.091686  -0.060885   8.201235  -0.069477  -0.019565  -0.000022
    16  C   -0.820096  -0.036543  -0.069477  10.134677   0.183130   0.197136
    17  C    0.176443   0.008922  -0.019565   0.183130   9.643678  -0.681884
    18  Cl   0.002223   0.000193  -0.000022   0.197136  -0.681884  17.096415
    19  C   -0.088565  -0.005358  -0.009873  -0.478419  -1.488370   0.343225
    20  C    0.403838   0.022807   0.072212  -2.879613   0.206280   0.029888
    21  H    0.056826   0.004246   0.029431  -0.061912   0.006411   0.000004
    22  H   -0.081105   0.017277   0.005523   0.006319   0.000963   0.000015
    23  H    0.013240  -0.007061  -0.002696   0.000906   0.000056   0.000000
    24  H    0.033316  -0.000878  -0.000447  -0.005091  -0.000393  -0.000003
    25  H   -0.001698  -0.001313  -0.002834  -0.004761  -0.002077   0.000007
    26  H    0.005667   0.003392   0.000186   0.000847   0.000100   0.000002
    27  H   -0.003489   0.004084  -0.000378   0.000439   0.000016   0.000000
    28  H    0.459876  -0.061854  -0.049023  -0.013806  -0.003146  -0.000010
    29  H   -0.047746   0.386656  -0.003953  -0.001434  -0.000321   0.000000
    30  H    0.019964   0.392507  -0.001118   0.000139   0.000048  -0.000001
    31  H   -0.047867   0.428314   0.006210   0.000043   0.000014   0.000000
    32  H    0.001619  -0.000526   0.000633   0.393740  -0.085913  -0.011275
    33  H    0.000062   0.000002   0.000014   0.023262  -0.062068  -0.004173
    34  H   -0.000308  -0.000067   0.000058  -0.022253   0.050621  -0.001011
             19         20         21         22         23         24
     1  O    0.037964  -0.453376   0.232344   0.000018  -0.000006  -0.000007
     2  C    0.146068  -2.796320   0.070918  -0.003172  -0.001073   0.002074
     3  C   -1.330950  -1.776741  -0.152805  -0.002718   0.001486   0.000845
     4  C   -0.577766   0.754028  -0.028830  -0.005177   0.006380  -0.004478
     5  N   -0.005937   0.044085   0.004290  -0.054471   0.009872   0.021594
     6  C    0.021517  -0.195148  -0.049074   0.519554  -0.134739  -0.097918
     7  C    0.005846  -0.054620   0.005942  -0.046586   0.573071   0.099001
     8  O    0.000025   0.000058  -0.000009  -0.005607  -0.053115   0.255665
     9  C   -0.001471   0.009692  -0.001164  -0.012794  -0.063762  -0.016756
    10  C   -0.002766   0.065764  -0.001692   0.000073  -0.019075   0.001708
    11  O   -0.000194  -0.001496  -0.000968  -0.000025  -0.000125  -0.000043
    12  O    0.000032  -0.000918   0.025022  -0.000259   0.000262   0.000108
    13  C   -0.088565   0.403838   0.056826  -0.081105   0.013240   0.033316
    14  C   -0.005358   0.022807   0.004246   0.017277  -0.007061  -0.000878
    15  O   -0.009873   0.072212   0.029431   0.005523  -0.002696  -0.000447
    16  C   -0.478419  -2.879613  -0.061912   0.006319   0.000906  -0.005091
    17  C   -1.488370   0.206280   0.006411   0.000963   0.000056  -0.000393
    18  Cl   0.343225   0.029888   0.000004   0.000015   0.000000  -0.000003
    19  C   10.306836  -0.545640  -0.008597  -0.000017   0.000002  -0.000037
    20  C   -0.545640  12.522810   0.176699   0.000035  -0.000119   0.000296
    21  H   -0.008597   0.176699   0.322468   0.000012   0.000004   0.000007
    22  H   -0.000017   0.000035   0.000012   0.551138  -0.002927  -0.000624
    23  H    0.000002  -0.000119   0.000004  -0.002927   0.528833   0.005377
    24  H   -0.000037   0.000296   0.000007  -0.000624   0.005377   0.400186
    25  H   -0.000248  -0.000861   0.000082  -0.000121   0.005012   0.002235
    26  H    0.000023  -0.000311  -0.000008  -0.000211  -0.006749  -0.001616
    27  H    0.000021  -0.000719  -0.000376   0.000000  -0.000235   0.000001
    28  H    0.000017   0.002575   0.000308  -0.012755  -0.000480  -0.000054
    29  H    0.000052   0.000090   0.000190  -0.000316  -0.002660  -0.000071
    30  H   -0.000033  -0.000905  -0.000281  -0.000180   0.000266   0.000004
    31  H   -0.000009   0.000098   0.000004  -0.000351   0.000093  -0.000017
    32  H    0.017548   0.004122   0.000064  -0.000039  -0.000002   0.000005
    33  H    0.412319  -0.041804   0.000030   0.000000   0.000000   0.000000
    34  H   -0.089914   0.574581   0.000410   0.000000   0.000000   0.000000
             25         26         27         28         29         30
     1  O   -0.000180   0.000000   0.000343  -0.000499  -0.000213   0.000431
     2  C    0.001599   0.000076  -0.001816   0.020591   0.003494  -0.005058
     3  C    0.007901   0.002655   0.003368  -0.003643   0.000127   0.004080
     4  C    0.013052  -0.005961  -0.004336  -0.009201   0.012510  -0.023586
     5  N    0.003058   0.001636   0.000298  -0.001673  -0.005302   0.001427
     6  C   -0.024884   0.009593   0.005219  -0.048291   0.029574  -0.020018
     7  C   -0.021691   0.002775   0.007662   0.019426  -0.016500   0.010106
     8  O   -0.002959  -0.001803   0.000056  -0.000871   0.000662  -0.000059
     9  C    0.458450   0.380770  -0.014414   0.002962  -0.005670  -0.002935
    10  C   -0.063579  -0.060539  -0.033381   0.004159   0.023398   0.002578
    11  O    0.002808  -0.004170   0.279817   0.000001   0.008803   0.000064
    12  O   -0.005240   0.004616   0.035356  -0.000101  -0.004530   0.000481
    13  C   -0.001698   0.005667  -0.003489   0.459876  -0.047746   0.019964
    14  C   -0.001313   0.003392   0.004084  -0.061854   0.386656   0.392507
    15  O   -0.002834   0.000186  -0.000378  -0.049023  -0.003953  -0.001118
    16  C   -0.004761   0.000847   0.000439  -0.013806  -0.001434   0.000139
    17  C   -0.002077   0.000100   0.000016  -0.003146  -0.000321   0.000048
    18  Cl   0.000007   0.000002   0.000000  -0.000010   0.000000  -0.000001
    19  C   -0.000248   0.000023   0.000021   0.000017   0.000052  -0.000033
    20  C   -0.000861  -0.000311  -0.000719   0.002575   0.000090  -0.000905
    21  H    0.000082  -0.000008  -0.000376   0.000308   0.000190  -0.000281
    22  H   -0.000121  -0.000211   0.000000  -0.012755  -0.000316  -0.000180
    23  H    0.005012  -0.006749  -0.000235  -0.000480  -0.002660   0.000266
    24  H    0.002235  -0.001616   0.000001  -0.000054  -0.000071   0.000004
    25  H    0.487540  -0.028806  -0.000258  -0.000041  -0.000181   0.000027
    26  H   -0.028806   0.522207   0.001273   0.000010   0.000101  -0.000005
    27  H   -0.000258   0.001273   0.370357  -0.000011  -0.000288   0.000001
    28  H   -0.000041   0.000010  -0.000011   0.572747   0.006453  -0.006835
    29  H   -0.000181   0.000101  -0.000288   0.006453   0.521162  -0.025213
    30  H    0.000027  -0.000005   0.000001  -0.006835  -0.025213   0.521656
    31  H    0.000013  -0.000018  -0.000015  -0.003647  -0.025505  -0.024393
    32  H   -0.000097  -0.000001   0.000000   0.000010   0.000000   0.000001
    33  H    0.000000   0.000000   0.000000   0.000000   0.000000   0.000000
    34  H    0.000000   0.000000   0.000000   0.000000   0.000000   0.000000
             31         32         33         34
     1  O   -0.000032  -0.000487  -0.000775   0.002174
     2  C    0.000270   0.015929   0.021391  -0.179420
     3  C   -0.000627  -0.015108  -0.010584   0.007474
     4  C   -0.004065   0.004528  -0.000614   0.007913
     5  N    0.000844   0.008031  -0.000046  -0.000002
     6  C   -0.000798   0.000522  -0.000023   0.000264
     7  C   -0.006791  -0.000083  -0.000007  -0.000012
     8  O   -0.000037   0.000023   0.000000   0.000000
     9  C    0.000391   0.000500   0.000003  -0.000036
    10  C    0.001339   0.000407  -0.000001   0.000060
    11  O   -0.000328  -0.000001   0.000000   0.000000
    12  O   -0.000054  -0.000051   0.000000   0.000016
    13  C   -0.047867   0.001619   0.000062  -0.000308
    14  C    0.428314  -0.000526   0.000002  -0.000067
    15  O    0.006210   0.000633   0.000014   0.000058
    16  C    0.000043   0.393740   0.023262  -0.022253
    17  C    0.000014  -0.085913  -0.062068   0.050621
    18  Cl   0.000000  -0.011275  -0.004173  -0.001011
    19  C   -0.000009   0.017548   0.412319  -0.089914
    20  C    0.000098   0.004122  -0.041804   0.574581
    21  H    0.000004   0.000064   0.000030   0.000410
    22  H   -0.000351  -0.000039   0.000000   0.000000
    23  H    0.000093  -0.000002   0.000000   0.000000
    24  H   -0.000017   0.000005   0.000000   0.000000
    25  H    0.000013  -0.000097   0.000000   0.000000
    26  H   -0.000018  -0.000001   0.000000   0.000000
    27  H   -0.000015   0.000000   0.000000   0.000000
    28  H   -0.003647   0.000010   0.000000   0.000000
    29  H   -0.025505   0.000000   0.000000   0.000000
    30  H   -0.024393   0.000001   0.000000   0.000000
    31  H    0.510487   0.000000   0.000000   0.000000
    32  H    0.000000   0.502204  -0.000100   0.000043
    33  H    0.000000  -0.000100   0.517562  -0.004750
    34  H    0.000000   0.000043  -0.004750   0.520072
 Mulliken atomic charges:
              1
     1  O   -0.540093
     2  C   -0.318475
     3  C    0.296481
     4  C    0.583116
     5  N   -0.351673
     6  C    0.206716
     7  C   -0.011105
     8  O   -0.480108
     9  C   -0.341355
    10  C    0.490312
    11  O   -0.361445
    12  O   -0.589718
    13  C    0.461243
    14  C   -0.590928
    15  O   -0.357134
    16  C   -0.972621
    17  C    1.051755
    18  Cl  -0.081341
    19  C   -0.657333
    20  C   -0.141367
    21  H    0.370004
    22  H    0.128528
    23  H    0.149965
    24  H    0.306009
    25  H    0.180042
    26  H    0.174275
    27  H    0.351404
    28  H    0.126808
    29  H    0.146630
    30  H    0.156838
    31  H    0.166434
    32  H    0.163752
    33  H    0.150299
    34  H    0.134085
 Sum of Mulliken atomic charges =   0.00000
 Mulliken charges with hydrogens summed into heavy atoms:
              1
     1  O   -0.170089
     2  C   -0.318475
     3  C    0.296481
     4  C    0.583116
     5  N   -0.351673
     6  C    0.335244
     7  C    0.138859
     8  O   -0.174098
     9  C    0.012962
    10  C    0.490312
    11  O   -0.010041
    12  O   -0.589718
    13  C    0.588051
    14  C   -0.121026
    15  O   -0.357134
    16  C   -0.808870
    17  C    1.051755
    18  Cl  -0.081341
    19  C   -0.507033
    20  C   -0.007282
 Sum of Mulliken charges with hydrogens summed into heavy atoms =   0.00000
 Electronic spatial extent (au):  <R**2>=           6529.1501
 Charge=              0.0000 electrons
 Dipole moment (field-independent basis, Debye):
    X=             -5.0652    Y=             -1.3949    Z=              1.2659  Tot=              5.4041
 Quadrupole moment (field-independent basis, Debye-Ang):
   XX=           -118.4704   YY=           -128.4395   ZZ=           -119.4268
   XY=              5.0855   XZ=             -5.8700   YZ=              4.3029
 Traceless Quadrupole moment (field-independent basis, Debye-Ang):
   XX=              3.6419   YY=             -6.3273   ZZ=              2.6854
   XY=              5.0855   XZ=             -5.8700   YZ=              4.3029
 Octapole moment (field-independent basis, Debye-Ang**2):
  XXX=            -67.3777  YYY=            -18.0316  ZZZ=              1.6485  XYY=             -5.9988
  XXY=            -97.5522  XXZ=             12.4873  XZZ=            -34.0320  YZZ=              5.4763
  YYZ=             -6.9450  XYZ=             -9.6366
 Hexadecapole moment (field-independent basis, Debye-Ang**3):
 XXXX=          -6104.1604 YYYY=          -1642.0944 ZZZZ=           -835.3189 XXXY=             71.2904
 XXXZ=            -79.5700 YYYX=            159.2754 YYYZ=             30.3289 ZZZX=              5.1824
 ZZZY=              6.7631 XXYY=          -1239.7952 XXZZ=          -1141.0710 YYZZ=           -414.3925
 XXYZ=             85.9719 YYXZ=             -2.6411 ZZXY=             16.4274
 N-N= 1.764012423085D+03 E-N=-6.808341138157D+03  KE= 1.390569012306D+03
 1\1\GINC-PROD2-0053\SP\RB3LYP\6-311+G(2d,p)\C13H14Cl1N1O5\YUHENG\26-Ma
 r-2019\0\\# b3lyp/6-311+G(2d,p) nmr guess=read geom=check integral(ult
 rafinegrid) scrf=(iefpcm,read,solvent=methanol)\\Candidate Structure: 
 1b, Conformer: 14, NMR calculation with methanol solvation\\0,1\O,0,0.
 656968211,-2.5544670467,0.2593183254\C,0,1.5869034567,-1.5820523016,0.
 1520076402\C,0,1.3192815906,-0.2127926442,0.3283981139\C,0,-0.01900509
 88,0.2895805451,0.6928892469\N,0,-0.4927933757,1.4365564008,0.40063986
 52\C,0,-1.8903549568,1.4340685983,0.8689744655\C,0,-2.8411178542,1.452
 776593,-0.3463802523\O,0,-2.9758006177,2.7876238593,-0.7985142749\C,0,
 -2.4003022888,0.5905081208,-1.5495768013\C,0,-2.4814449809,-0.89715063
 03,-1.3476865645\O,0,-3.7339972214,-1.3559124508,-1.4241029275\O,0,-1.
 5323974466,-1.6228604956,-1.1109992293\C,0,-1.9437194473,0.2302254995,
 1.8287065674\C,0,-3.197913051,-0.6114152489,1.8968365703\O,0,-0.808591
 5557,-0.5640303221,1.3938904192\C,0,2.3508675776,0.724674805,0.1668124
 117\C,0,3.6329263784,0.2980058533,-0.1346591387\Cl,0,4.9146943127,1.47
 62808136,-0.3196399893\C,0,3.9189977083,-1.0602129634,-0.2860464628\C,
 0,2.896324798,-1.98767049,-0.1459768328\H,0,-0.2441090628,-2.188627793
 5,0.213509476\H,0,-2.1021951535,2.3562256039,1.4203371298\H,0,-3.84077
 40664,1.1446219549,-0.0165377513\H,0,-2.0863930953,3.1530249659,-0.952
 2337029\H,0,-1.3697525973,0.8435867225,-1.8068777886\H,0,-3.0629868983
 ,0.8571309257,-2.3766842717\H,0,-3.7347941766,-2.326972128,-1.27661092
 46\H,0,-1.6808461739,0.5868110519,2.8321008278\H,0,-3.4848086865,-1.01
 55518651,0.9249580136\H,0,-3.0516503082,-1.4431058962,2.5891204032\H,0
 ,-4.0238620221,0.0003833351,2.2719362607\H,0,2.1277480343,1.7791896705
 ,0.2970324978\H,0,4.9292222719,-1.3849170425,-0.516379676\H,0,3.086838
 301,-3.0485709139,-0.2768020153\\Version=EM64L-G09RevB.01\State=1-A\HF
 =-1395.2368044\RMSD=4.286e-09\Dipole=-1.9927868,-0.5487834,0.4980284\Q
 uadrupole=2.7076314,-4.704181,1.9965496,3.7809598,-4.3641871,3.1991201
 \PG=C01 [X(C13H14Cl1N1O5)]\\@


 THE MOST INCOMPREHENSIBLE THING ABOUT THE WORLD
 IS THAT IT IS COMPREHENSIBLE. -- A. EINSTEIN
 Job cpu time:  0 days  2 hours 49 minutes 20.6 seconds.
 File lengths (MBytes):  RWF=    323 Int=      0 D2E=      0 Chk=     29 Scr=      1
 Normal termination of Gaussian 09 at Tue Mar 26 02:58:56 2019.
