 Entering Gaussian System, Link 0=g09
 Initial command:
 /home/yuheng/proj/yuheng/g09/l1.exe /home/yuheng/proj/yuheng/g09_scratch/Gau-35809.inp -scrdir=/home/yuheng/proj/yuheng/g09_scratch/
 Entering Link 1 = /home/yuheng/proj/yuheng/g09/l1.exe PID=     35810.
  
 Copyright (c) 1988,1990,1992,1993,1995,1998,2003,2009,2010,
            Gaussian, Inc.  All Rights Reserved.
  
 This is part of the Gaussian(R) 09 program.  It is based on
 the Gaussian(R) 03 system (copyright 2003, Gaussian, Inc.),
 the Gaussian(R) 98 system (copyright 1998, Gaussian, Inc.),
 the Gaussian(R) 94 system (copyright 1995, Gaussian, Inc.),
 the Gaussian 92(TM) system (copyright 1992, Gaussian, Inc.),
 the Gaussian 90(TM) system (copyright 1990, Gaussian, Inc.),
 the Gaussian 88(TM) system (copyright 1988, Gaussian, Inc.),
 the Gaussian 86(TM) system (copyright 1986, Carnegie Mellon
 University), and the Gaussian 82(TM) system (copyright 1983,
 Carnegie Mellon University). Gaussian is a federally registered
 trademark of Gaussian, Inc.
  
 This software contains proprietary and confidential information,
 including trade secrets, belonging to Gaussian, Inc.
  
 This software is provided under written license and may be
 used, copied, transmitted, or stored only in accord with that
 written license.
  
 The following legend is applicable only to US Government
 contracts under FAR:
  
                    RESTRICTED RIGHTS LEGEND
  
 Use, reproduction and disclosure by the US Government is
 subject to restrictions as set forth in subparagraphs (a)
 and (c) of the Commercial Computer Software - Restricted
 Rights clause in FAR 52.227-19.
  
 Gaussian, Inc.
 340 Quinnipiac St., Bldg. 40, Wallingford CT 06492
  
  
 ---------------------------------------------------------------
 Warning -- This program may not be used in any manner that
 competes with the business of Gaussian, Inc. or will provide
 assistance to any competitor of Gaussian, Inc.  The licensee
 of this program is prohibited from giving any competitor of
 Gaussian, Inc. access to this program.  By using this program,
 the user acknowledges that Gaussian, Inc. is engaged in the
 business of creating and licensing software in the field of
 computational chemistry and represents and warrants to the
 licensee that it is not a competitor of Gaussian, Inc. and that
 it will not use this program in any manner prohibited above.
 ---------------------------------------------------------------
  

 Cite this work as:
 Gaussian 09, Revision B.01,
 M. J. Frisch, G. W. Trucks, H. B. Schlegel, G. E. Scuseria, 
 M. A. Robb, J. R. Cheeseman, G. Scalmani, V. Barone, B. Mennucci, 
 G. A. Petersson, H. Nakatsuji, M. Caricato, X. Li, H. P. Hratchian, 
 A. F. Izmaylov, J. Bloino, G. Zheng, J. L. Sonnenberg, M. Hada, 
 M. Ehara, K. Toyota, R. Fukuda, J. Hasegawa, M. Ishida, T. Nakajima, 
 Y. Honda, O. Kitao, H. Nakai, T. Vreven, J. A. Montgomery, Jr., 
 J. E. Peralta, F. Ogliaro, M. Bearpark, J. J. Heyd, E. Brothers, 
 K. N. Kudin, V. N. Staroverov, T. Keith, R. Kobayashi, J. Normand, 
 K. Raghavachari, A. Rendell, J. C. Burant, S. S. Iyengar, J. Tomasi, 
 M. Cossi, N. Rega, J. M. Millam, M. Klene, J. E. Knox, J. B. Cross, 
 V. Bakken, C. Adamo, J. Jaramillo, R. Gomperts, R. E. Stratmann, 
 O. Yazyev, A. J. Austin, R. Cammi, C. Pomelli, J. W. Ochterski, 
 R. L. Martin, K. Morokuma, V. G. Zakrzewski, G. A. Voth, 
 P. Salvador, J. J. Dannenberg, S. Dapprich, A. D. Daniels, 
 O. Farkas, J. B. Foresman, J. V. Ortiz, J. Cioslowski, 
 and D. J. Fox, Gaussian, Inc., Wallingford CT, 2010.
 
 ******************************************
 Gaussian 09:  EM64L-G09RevB.01 12-Aug-2010
                26-Mar-2019 
 ******************************************
 %mem=16gb
 %nprocshared=20
 Will use up to   20 processors via shared memory.
 %chk=1b-conf-3.chk
 ----------------------------------------------------------------------
 # b3lyp/6-311+G(2d,p) nmr guess=read geom=check integral(ultrafinegrid
 ) scrf=(iefpcm,read,solvent=methanol)
 ----------------------------------------------------------------------
 1/29=2,38=1,40=2/1;
 2/12=2,40=1/2;
 3/5=4,6=6,7=112,11=2,14=-4,16=1,25=1,30=1,70=2203,72=3,74=-5,75=-5,116=-2/1,2,8,3;
 4/5=1/1;
 5/5=2,38=6,53=3/2;
 8/6=1,10=90,11=11/1;
 10/13=100,45=16/2;
 6/7=2,8=2,9=2,10=2,28=1/1;
 99/9=1/99;
 ----------------------------------------------------------------------
 Candidate Structure: 1b, Conformer: 3, NMR calculation with methanol s
 olvation
 ----------------------------------------------------------------------
 Redundant internal coordinates taken from checkpoint file:
 1b-conf-3.chk
 Charge =  0 Multiplicity = 1
 O,0,-0.857873086,4.9730705499,0.1523187636
 C,0,-1.5746181306,3.857432258,-0.1014692829
 C,0,-1.0865157114,2.7233902829,-0.7779772068
 C,0,0.2846092875,2.6229456133,-1.3028393198
 N,0,0.7475169056,1.6855932434,-2.0306815739
 C,0,2.1810206425,1.9728660806,-2.1958893475
 C,0,2.6722969394,1.4659100071,-3.5525486943
 O,0,1.9748525972,2.0407284167,-4.6363678812
 C,0,4.1619308548,1.7353844808,-3.7949464435
 C,0,4.9950138057,1.1296028565,-2.6937214622
 O,0,5.4066519375,2.0401705122,-1.8032283118
 O,0,5.2392069815,-0.0530801664,-2.5911764618
 C,0,2.3019524248,3.473248417,-1.8483939045
 C,0,2.1451822373,4.4902118145,-2.9664022114
 O,0,1.1460738994,3.625757216,-0.9642781057
 C,0,-1.9363560542,1.6245076934,-0.983239394
 C,0,-3.2392181753,1.65876058,-0.5285962143
 Cl,0,-4.2854592112,0.2831615234,-0.7945978556
 C,0,-3.7335693334,2.7791936199,0.1443642734
 C,0,-2.9014738174,3.8652077533,0.3526041911
 H,0,0.0532046477,4.8834987004,-0.1775282759
 H,0,2.7158448502,1.3945361092,-1.4247668694
 H,0,2.5201344728,0.3761434575,-3.5419486696
 H,0,1.0315995414,1.8200995739,-4.5427395892
 H,0,4.3520268531,2.808131653,-3.8625952096
 H,0,4.4433286529,1.2630774881,-4.7390320196
 H,0,5.9137086777,1.5901997971,-1.093537224
 H,0,3.1882011453,3.6757066487,-1.2438212872
 H,0,1.22186344,4.3166385463,-3.5232520695
 H,0,2.1204605657,5.4921446967,-2.5300456462
 H,0,2.9763846873,4.4385704342,-3.6714530758
 H,0,-1.5479726993,0.7539141338,-1.5028683708
 H,0,-4.7594418353,2.7953755147,0.5008676852
 H,0,-3.2601359932,4.7485354939,0.8724740644
 Recover connectivity data from disk.
                          Input orientation:                          
 ---------------------------------------------------------------------
 Center     Atomic      Atomic             Coordinates (Angstroms)
 Number     Number       Type             X           Y           Z
 ---------------------------------------------------------------------
      1          8           0       -0.857873    4.973071    0.152319
      2          6           0       -1.574618    3.857432   -0.101469
      3          6           0       -1.086516    2.723390   -0.777977
      4          6           0        0.284609    2.622946   -1.302839
      5          7           0        0.747517    1.685593   -2.030682
      6          6           0        2.181021    1.972866   -2.195889
      7          6           0        2.672297    1.465910   -3.552549
      8          8           0        1.974853    2.040728   -4.636368
      9          6           0        4.161931    1.735384   -3.794946
     10          6           0        4.995014    1.129603   -2.693721
     11          8           0        5.406652    2.040171   -1.803228
     12          8           0        5.239207   -0.053080   -2.591176
     13          6           0        2.301952    3.473248   -1.848394
     14          6           0        2.145182    4.490212   -2.966402
     15          8           0        1.146074    3.625757   -0.964278
     16          6           0       -1.936356    1.624508   -0.983239
     17          6           0       -3.239218    1.658761   -0.528596
     18         17           0       -4.285459    0.283162   -0.794598
     19          6           0       -3.733569    2.779194    0.144364
     20          6           0       -2.901474    3.865208    0.352604
     21          1           0        0.053205    4.883499   -0.177528
     22          1           0        2.715845    1.394536   -1.424767
     23          1           0        2.520134    0.376143   -3.541949
     24          1           0        1.031600    1.820100   -4.542740
     25          1           0        4.352027    2.808132   -3.862595
     26          1           0        4.443329    1.263077   -4.739032
     27          1           0        5.913709    1.590200   -1.093537
     28          1           0        3.188201    3.675707   -1.243821
     29          1           0        1.221863    4.316639   -3.523252
     30          1           0        2.120461    5.492145   -2.530046
     31          1           0        2.976385    4.438570   -3.671453
     32          1           0       -1.547973    0.753914   -1.502868
     33          1           0       -4.759442    2.795376    0.500868
     34          1           0       -3.260136    4.748535    0.872474
 ---------------------------------------------------------------------
                    Distance matrix (angstroms):
                    1          2          3          4          5
     1  O    0.000000
     2  C    1.350104   0.000000
     3  C    2.445156   1.407820   0.000000
     4  C    2.990959   2.534556   1.471582   0.000000
     5  N    4.260314   3.719013   2.451523   1.273840   0.000000
     6  C    4.873416   4.694998   3.640131   2.194657   1.471310
     7  C    6.203895   5.972070   4.838200   3.478646   2.463558
     8  O    6.289236   6.038581   4.972442   3.782633   2.902081
     9  C    7.159745   7.145128   6.133877   4.693824   3.843609
    10  C    7.558338   7.571056   6.572308   5.133472   4.334741
    11  O    7.188208   7.411920   6.609021   5.179318   4.678141
    12  O    8.364409   8.241296   7.142216   5.776588   4.848961
    13  C    4.029493   4.269326   3.631776   2.256173   2.375965
    14  C    4.356365   4.737633   4.284243   3.117027   3.270310
    15  O    2.660422   2.863613   2.415250   1.364689   2.249511
    16  C    3.696686   2.427823   1.404245   2.455954   2.881673
    17  C    4.137523   2.790607   2.414489   3.734497   4.260403
    18  Cl   5.885596   4.539218   4.023460   5.159305   5.368945
    19  C    3.617014   2.425717   2.803698   4.273707   5.099698
    20  C    2.333191   1.402423   2.424053   3.799320   4.872977
    21  H    0.973080   1.925722   2.515069   2.535739   3.760698
    22  H    5.297600   5.121040   4.079477   2.726676   2.079943
    23  H    6.796344   6.381479   5.114395   3.880632   2.672220
    24  H    5.962793   5.537868   4.413137   3.420455   2.531646
    25  H    6.924562   7.097339   6.252983   4.809421   4.196247
    26  H    8.111233   8.028284   6.957129   5.563417   4.601381
    27  H    7.671394   7.886671   7.098369   5.726878   5.251369
    28  H    4.472480   4.901269   4.404216   3.089116   3.246019
    29  H    4.273877   4.442947   3.924741   2.945721   3.061890
    30  H    4.041657   4.714220   4.584806   3.620592   4.077275
    31  H    5.441365   5.813272   5.274581   4.019015   3.903699
    32  H    4.584448   3.405357   2.148778   2.625195   2.532960
    33  H    4.481750   3.410847   3.889860   5.359622   6.161733
    34  H    2.517917   2.140935   3.398504   4.670689   5.819898
                    6          7          8          9         10
     6  C    0.000000
     7  C    1.529340   0.000000
     8  O    2.450111   1.411208   0.000000
     9  C    2.556831   1.533096   2.363162   0.000000
    10  C    2.979511   2.499140   3.704781   1.507878   0.000000
    11  O    3.250140   3.296452   4.450160   2.368368   1.338491
    12  O    3.689609   3.133783   4.384387   2.410019   1.211976
    13  C    1.544838   2.659080   3.151493   3.204490   3.668764
    14  C    2.632870   3.125351   2.969472   3.513237   4.414701
    15  O    2.306519   3.700465   4.084536   4.547701   4.902662
    16  C    4.306352   5.278843   5.368067   6.716181   7.156435
    17  C    5.679570   6.642853   6.648776   8.090236   8.530554
    18  Cl   6.828915   7.577305   7.552466   9.081269   9.510537
    19  C    6.411655   7.511791   7.482434   8.885192   9.325451
    20  C    5.992289   7.216216   7.210903   8.463451   8.894838
    21  H    4.131969   5.470861   5.626306   6.314901   6.696599
    22  H    1.102330   2.129424   3.358722   2.797337   2.622031
    23  H    2.115750   1.100389   2.065413   2.146401   2.722539
    24  H    2.617673   1.948799   0.973226   3.219526   4.427675
    25  H    2.861616   2.172367   2.615070   1.091558   2.144098
    26  H    3.476983   2.141363   2.590107   1.092500   2.122609
    27  H    3.910828   4.070496   5.316880   3.222951   1.901773
    28  H    2.195566   3.237218   3.956607   3.349812   3.442300
    29  H    2.859221   3.198635   2.643064   3.921822   5.008191
    30  H    3.535626   4.190537   4.045994   4.458792   5.227008
    31  H    2.981542   2.990538   2.771962   2.954316   3.997510
    32  H    3.983907   4.745398   4.887229   6.230562   6.661077
    33  H    7.491264   8.569038   8.503611   9.958338  10.398539
    34  H    6.835597   8.096309   8.067507   9.270975   9.693396
                   11         12         13         14         15
    11  O    0.000000
    12  O    2.242900   0.000000
    13  C    3.419782   4.649106   0.000000
    14  C    4.241799   5.509563   1.519452   0.000000
    15  O    4.622818   5.738848   1.463207   2.398750   0.000000
    16  C    7.400333   7.542444   4.704210   5.366950   3.675151
    17  C    8.747641   8.892037   5.978194   6.553761   4.825938
    18  Cl   9.901587   9.698454   7.394669   7.985559   6.379913
    19  C    9.374589   9.798759   6.393772   6.867618   5.075104
    20  C    8.775154   9.502079   5.663362   6.072493   4.263116
    21  H    6.275891   7.555801   3.136473   3.508399   1.842621
    22  H    2.792941   3.134240   2.161437   3.505068   2.766691
    23  H    3.758207   2.912311   3.536635   4.171019   4.369487
    24  H    5.166666   5.002136   3.406787   3.294602   4.009849
    25  H    2.437825   3.254248   2.949948   2.915942   4.398510
    26  H    3.186033   2.641775   4.222101   4.340287   5.541021
    27  H    0.981449   2.323412   4.142519   5.110723   5.185609
    28  H    2.812372   4.463837   1.091757   2.172232   2.061777
    29  H    5.064903   6.008515   2.164035   1.092120   2.651680
    30  H    4.821145   6.362377   2.138581   1.093109   2.623825
    31  H    3.892144   5.144151   2.170311   1.091174   3.367417
    32  H    7.078946   6.921088   4.726107   5.453553   3.974349
    33  H   10.451251  10.846539   7.472739   7.910010   6.140953
    34  H    9.466142  10.358147   6.321891   6.634845   4.903975
                   16         17         18         19         20
    16  C    0.000000
    17  C    1.380335   0.000000
    18  Cl   2.711656   1.748614   0.000000
    19  C    2.415526   1.397365   2.723308   0.000000
    20  C    2.781486   2.399791   4.007810   1.383898   0.000000
    21  H    3.902377   4.621930   6.353572   4.344119   3.169871
    22  H    4.678761   6.027911   7.116918   6.780442   6.388860
    23  H    5.288262   6.625371   7.339802   7.646722   7.532260
    24  H    4.638648   5.863383   6.684449   6.752454   6.604235
    25  H    7.016795   8.370400   9.507589   9.024047   8.455684
    26  H    7.411949   8.769599   9.628631   9.644057   9.308167
    27  H    7.850915   9.170601  10.286921   9.798779   9.218158
    28  H    5.525976   6.774315   8.219900   7.116298   6.298303
    29  H    4.865551   5.994458   7.351537   6.353854   5.676968
    30  H    5.814550   6.886711   8.436889   6.984428   6.014684
    31  H    6.267413   7.499241   8.847491   7.895409   7.146398
    32  H    1.085721   2.151340   2.866546   3.404697   3.867156
    33  H    3.397546   2.159345   2.866027   1.086173   2.149085
    34  H    3.867249   3.392660   4.875447   2.152345   1.085896
                   21         22         23         24         25
    21  H    0.000000
    22  H    4.562687   0.000000
    23  H    6.141768   2.357517   0.000000
    24  H    5.421876   3.569249   2.302678   0.000000
    25  H    6.030484   3.258581   3.061570   3.530445   0.000000
    26  H    7.293007   3.739764   2.432763   3.462470   1.778671
    27  H    6.784571   3.220921   4.357178   5.982043   3.404393
    28  H    3.524762   2.336579   4.076128   4.356268   2.994187
    29  H    3.589006   3.895421   4.148899   2.703380   3.491228
    30  H    3.190350   4.285618   5.230407   4.326716   3.736242
    31  H    4.577167   3.792311   4.090018   3.376051   2.141788
    32  H    4.623177   4.312382   4.566186   4.126955   6.678182
    33  H    5.289806   7.845402   8.671175   7.741143  10.102417
    34  H    3.478354   7.227653   8.486252   7.504617   9.172299
                   26         27         28         29         30
    26  H    0.000000
    27  H    3.944447   0.000000
    28  H    4.428614   3.435159   0.000000
    29  H    4.602194   5.945620   3.077837   0.000000
    30  H    5.306632   5.628273   2.468581   1.782064   0.000000
    31  H    3.657240   4.835984   2.553473   1.764986   1.773538
    32  H    6.828447   7.519549   5.570935   4.944385   6.079747
    33  H   10.700256  10.858670   8.184372   7.367754   7.986993
    34  H   10.147945   9.899480   6.871006   6.292636   6.409439
                   31         32         33         34
    31  H    0.000000
    32  H    6.224890   0.000000
    33  H    8.941553   4.300704   0.000000
    34  H    7.722535   4.952853   2.490149   0.000000
 Stoichiometry    C13H14ClNO5
 Framework group  C1[X(C13H14ClNO5)]
 Deg. of freedom    96
 Full point group                 C1      NOp   1
 Largest Abelian subgroup         C1      NOp   1
 Largest concise Abelian subgroup C1      NOp   1
                         Standard orientation:                         
 ---------------------------------------------------------------------
 Center     Atomic      Atomic             Coordinates (Angstroms)
 Number     Number       Type             X           Y           Z
 ---------------------------------------------------------------------
      1          8           0        2.020309    2.861567   -0.283722
      2          6           0        2.563333    1.626550   -0.232341
      3          6           0        1.829980    0.426795   -0.163504
      4          6           0        0.359521    0.378704   -0.132013
      5          7           0       -0.358015   -0.656555    0.057852
      6          6           0       -1.752049   -0.219231   -0.115836
      7          6           0       -2.682989   -1.043123    0.774913
      8          8           0       -2.353984   -0.949728    2.144052
      9          6           0       -4.156087   -0.638003    0.647460
     10          6           0       -4.608791   -0.734206   -0.787636
     11          8           0       -4.664512    0.460751   -1.388077
     12          8           0       -4.858913   -1.773515   -1.358740
     13          6           0       -1.684756    1.314477    0.056609
     14          6           0       -1.857291    1.894535    1.450344
     15          8           0       -0.297388    1.556605   -0.340327
     16          6           0        2.515264   -0.797742   -0.110603
     17          6           0        3.895314   -0.823187   -0.122330
     18         17           0        4.733586   -2.356214   -0.053196
     19          6           0        4.632789    0.361744   -0.190869
     20          6           0        3.964648    1.572429   -0.245665
     21          1           0        1.048394    2.814118   -0.287536
     22          1           0       -2.030190   -0.438535   -1.159712
     23          1           0       -2.584996   -2.084777    0.434015
     24          1           0       -1.443065   -1.271827    2.260880
     25          1           0       -4.309336    0.375682    1.022235
     26          1           0       -4.752228   -1.332657    1.243805
     27          1           0       -4.930792    0.338334   -2.324747
     28          1           0       -2.313949    1.828962   -0.672332
     29          1           0       -1.176178    1.416361    2.157565
     30          1           0       -1.645875    2.966397    1.414246
     31          1           0       -2.875042    1.753176    1.817578
     32          1           0        1.939281   -1.716776   -0.061514
     33          1           0        5.718468    0.331132   -0.202504
     34          1           0        4.513234    2.508030   -0.299285
 ---------------------------------------------------------------------
 Rotational constants (GHZ):      0.5860585      0.1437252      0.1276821
 Standard basis: 6-311+G(2d,p) (5D, 7F)
 There are   632 symmetry adapted basis functions of A   symmetry.
 Integral buffers will be    131072 words long.
 Raffenetti 2 integral format.
 Two-electron integral symmetry is turned on.
   632 basis functions,   969 primitive gaussians,   672 cartesian basis functions
    78 alpha electrons       78 beta electrons
       nuclear repulsion energy      1685.1465301508 Hartrees.
 NAtoms=   34 NActive=   34 NUniq=   34 SFac= 1.00D+00 NAtFMM=   50 NAOKFM=F Big=F
 Using the following non-standard input for PCM:
 radii=bondi
 --- end of non-standard input.
 ------------------------------------------------------------------------------
 Polarizable Continuum Model (PCM)
 =================================
 Model                : PCM.
 Atomic radii         : Bondi.
 Polarization charges : Total charges.
 Charge compensation  : None.
 Solution method      : Matrix inversion.
 Cavity type          : Scaled VdW (van der Waals Surface) (Alpha=1.100).
 Cavity algorithm     : GePol (No added spheres)
                        Default sphere list used, NSphG=   34.
                        Lebedev-Laikov grids with approx.  5.0 points / Ang**2.
                        Smoothing algorithm: Karplus/York (Gamma=1.0000).
                        Polarization charges: spherical gaussians, with
                                              point-specific exponents (IZeta= 3).
                        Self-potential: point-specific (ISelfS= 7).
                        Self-field    : sphere-specific E.n sum rule (ISelfD= 2).
 Solvent              : Methanol, Eps=  32.613000 Eps(inf)=   1.765709
 ------------------------------------------------------------------------------
 One-electron integrals computed using PRISM.
 NBasis=   632 RedAO= T  NBF=   632
 NBsUse=   630 1.00D-06 NBFU=   630
 Initial guess read from the checkpoint file:  1b-conf-3.chk
 B after Tr=     0.000000    0.000000    0.000000
         Rot=    1.000000    0.000000    0.000000    0.000000 Ang=   0.00 deg.
 Initial guess orbital symmetries:
       Occupied  (A) (A) (A) (A) (A) (A) (A) (A) (A) (A) (A) (A)
                 (A) (A) (A) (A) (A) (A) (A) (A) (A) (A) (A) (A)
                 (A) (A) (A) (A) (A) (A) (A) (A) (A) (A) (A) (A)
                 (A) (A) (A) (A) (A) (A) (A) (A) (A) (A) (A) (A)
                 (A) (A) (A) (A) (A) (A) (A) (A) (A) (A) (A) (A)
                 (A) (A) (A) (A) (A) (A) (A) (A) (A) (A) (A) (A)
                 (A) (A) (A) (A) (A) (A)
       Virtual   (A) (A) (A) (A) (A) (A) (A) (A) (A) (A) (A) (A)
                 (A) (A) (A) (A) (A) (A) (A) (A) (A) (A) (A) (A)
                 (A) (A) (A) (A) (A) (A) (A) (A) (A) (A) (A) (A)
                 (A) (A) (A) (A) (A) (A) (A) (A) (A) (A) (A) (A)
                 (A) (A) (A) (A) (A) (A) (A) (A) (A) (A) (A) (A)
                 (A) (A) (A) (A) (A) (A) (A) (A) (A) (A) (A) (A)
                 (A) (A) (A) (A) (A) (A) (A) (A) (A) (A) (A) (A)
                 (A) (A) (A) (A) (A) (A) (A) (A) (A) (A) (A) (A)
                 (A) (A) (A) (A) (A) (A) (A) (A) (A) (A) (A) (A)
                 (A) (A) (A) (A) (A) (A) (A) (A) (A) (A) (A) (A)
                 (A) (A) (A) (A) (A) (A) (A) (A) (A) (A) (A) (A)
                 (A) (A) (A) (A) (A) (A) (A) (A) (A) (A) (A) (A)
                 (A) (A) (A) (A) (A) (A) (A) (A) (A) (A) (A) (A)
                 (A) (A) (A) (A) (A) (A) (A) (A) (A) (A) (A) (A)
                 (A) (A) (A) (A) (A) (A) (A) (A) (A) (A) (A) (A)
                 (A) (A) (A) (A) (A) (A) (A) (A) (A) (A) (A) (A)
                 (A) (A) (A) (A) (A) (A) (A) (A) (A) (A) (A) (A)
                 (A) (A) (A) (A) (A) (A) (A) (A) (A) (A) (A) (A)
                 (A) (A) (A) (A) (A) (A) (A) (A) (A) (A) (A) (A)
                 (A) (A) (A) (A) (A) (A) (A) (A) (A) (A) (A) (A)
                 (A) (A) (A) (A) (A) (A) (A) (A) (A) (A) (A) (A)
                 (A) (A) (A) (A) (A) (A) (A) (A) (A) (A) (A) (A)
                 (A) (A) (A) (A) (A) (A) (A) (A) (A) (A) (A) (A)
                 (A) (A) (A) (A) (A) (A) (A) (A) (A) (A) (A) (A)
                 (A) (A) (A) (A) (A) (A) (A) (A) (A) (A) (A) (A)
                 (A) (A) (A) (A) (A) (A) (A) (A) (A) (A) (A) (A)
                 (A) (A) (A) (A) (A) (A) (A) (A) (A) (A) (A) (A)
                 (A) (A) (A) (A) (A) (A) (A) (A) (A) (A) (A) (A)
                 (A) (A) (A) (A) (A) (A) (A) (A) (A) (A) (A) (A)
                 (A) (A) (A) (A) (A) (A) (A) (A) (A) (A) (A) (A)
                 (A) (A) (A) (A) (A) (A) (A) (A) (A) (A) (A) (A)
                 (A) (A) (A) (A) (A) (A) (A) (A) (A) (A) (A) (A)
                 (A) (A) (A) (A) (A) (A) (A) (A) (A) (A) (A) (A)
                 (A) (A) (A) (A) (A) (A) (A) (A) (A) (A) (A) (A)
                 (A) (A) (A) (A) (A) (A) (A) (A) (A) (A) (A) (A)
                 (A) (A) (A) (A) (A) (A) (A) (A) (A) (A) (A) (A)
                 (A) (A) (A) (A) (A) (A) (A) (A) (A) (A) (A) (A)
                 (A) (A) (A) (A) (A) (A) (A) (A) (A) (A) (A) (A)
                 (A) (A) (A) (A) (A) (A) (A) (A) (A) (A) (A) (A)
                 (A) (A) (A) (A) (A) (A) (A) (A) (A) (A) (A) (A)
                 (A) (A) (A) (A) (A) (A) (A) (A) (A) (A) (A) (A)
                 (A) (A) (A) (A) (A) (A) (A) (A) (A) (A) (A) (A)
                 (A) (A) (A) (A) (A) (A) (A) (A) (A) (A) (A) (A)
                 (A) (A) (A) (A) (A) (A) (A) (A) (A) (A) (A) (A)
                 (A) (A) (A) (A) (A) (A) (A) (A) (A) (A) (A) (A)
                 (A) (A) (A) (A) (A) (A) (A) (A) (A) (A) (A) (A)
 Requested convergence on RMS density matrix=1.00D-08 within 128 cycles.
 Requested convergence on MAX density matrix=1.00D-06.
 Requested convergence on             energy=1.00D-06.
 No special actions if energy rises.
 Error on total polarization charges =  0.05118
 SCF Done:  E(RB3LYP) =  -1395.24513695     A.U. after   13 cycles
             Convg  =    0.2625D-08             -V/T =  2.0034
 Range of M.O.s used for correlation:     1   630
 NBasis=   632 NAE=    78 NBE=    78 NFC=     0 NFV=     0
 NROrb=    630 NOA=    78 NOB=    78 NVA=   552 NVB=   552

 **** Warning!!: The largest alpha MO coefficient is  0.12349442D+03

 NEqPCM:  Using equilibrium solvation (IEInf=0, Eps=  32.6130, EpsInf=   1.7657)
          Differentiating once with respect to magnetic field using GIAOs.
          Electric field/nuclear overlap derivatives assumed to be zero.
 FoFCou: FMM=F IPFlag=           0 FMFlag=    10101102 FMFlg1=           0
         NFxFlg=    40000000 DoJE=F BraDBF=F KetDBF=T FulRan=T
         Omega=  0.000000  0.000000  1.000000  0.000000  0.000000 ICntrl=    6100 IOpCl=  0
         NMat0=    1 NMatS0=    1 NMatT0=    0 NMatD0=    1 NMtDS0=    0 NMtDT0=    0
         I1Cent=           7 NGrid=        2507.
 Symmetry not used in FoFCou.
          There are     3 degrees of freedom in the 1st order CPHF.  IDoFFX=0.
      3 vectors produced by pass  0 Test12= 1.44D-12 3.33D-08 XBig12= 5.29D+02 8.05D+00.
 AX will form     3 AO Fock derivatives at one time.
      3 vectors produced by pass  1 Test12= 1.44D-12 3.33D-08 XBig12= 1.26D+00 2.93D-01.
      3 vectors produced by pass  2 Test12= 1.44D-12 3.33D-08 XBig12= 5.44D-03 2.95D-02.
      3 vectors produced by pass  3 Test12= 1.44D-12 3.33D-08 XBig12= 1.71D-05 1.54D-03.
      3 vectors produced by pass  4 Test12= 1.44D-12 3.33D-08 XBig12= 4.45D-08 8.69D-05.
      3 vectors produced by pass  5 Test12= 1.44D-12 3.33D-08 XBig12= 1.98D-10 5.31D-06.
      3 vectors produced by pass  6 Test12= 1.44D-12 3.33D-08 XBig12= 5.10D-13 1.71D-07.
 Inverted reduced A of dimension    21 with in-core refinement.
 Calculating GIAO nuclear magnetic shielding tensors.
 SCF GIAO Magnetic shielding tensor (ppm):
  1  O    Isotropic =   200.0438   Anisotropy =    93.8134
   XX=   144.5067   YX=   -21.5817   ZX=    -0.1905
   XY=   -20.0750   YY=   193.8327   ZY=     4.4047
   XZ=     1.7419   YZ=    10.1999   ZZ=   261.7920
   Eigenvalues:   136.8040   200.7413   262.5861
  2  C    Isotropic =    18.5464   Anisotropy =   143.7807
   XX=   -11.7508   YX=    29.9363   ZX=    -0.5296
   XY=    19.2309   YY=   -46.7028   ZY=     7.2180
   XZ=     1.0740   YZ=     6.5268   ZZ=   114.0927
   Eigenvalues:   -59.5954     0.8343   114.4002
  3  C    Isotropic =    64.4414   Anisotropy =   136.3466
   XX=    -0.6731   YX=    -6.3989   ZX=     2.8801
   XY=     9.7335   YY=    38.8980   ZY=     6.0797
   XZ=     1.5185   YZ=     3.7349   ZZ=   155.0993
   Eigenvalues:    -0.7688    38.7538   155.3391
  4  C    Isotropic =    10.5088   Anisotropy =    77.5502
   XX=   -26.8588   YX=    63.4691   ZX=    -9.9105
   XY=    67.1947   YY=    -0.0669   ZY=     9.4679
   XZ=   -18.8352   YZ=     2.5318   ZZ=    58.4519
   Eigenvalues:   -81.7455    51.0629    62.2089
  5  N    Isotropic =    17.7838   Anisotropy =   236.6515
   XX=  -129.7057   YX=    42.8684   ZX=   -26.6594
   XY=    17.2994   YY=    14.0759   ZY=    44.9297
   XZ=    15.1870   YZ=    20.2124   ZZ=   168.9812
   Eigenvalues:  -136.2308    14.0307   175.5515
  6  C    Isotropic =   108.4299   Anisotropy =    41.8444
   XX=   134.4025   YX=    -5.2466   ZX=    -5.3876
   XY=    -8.7715   YY=   110.7584   ZY=    -9.8144
   XZ=     4.3386   YZ=     3.4161   ZZ=    80.1288
   Eigenvalues:    79.7691   109.1944   136.3261
  7  C    Isotropic =   107.2949   Anisotropy =    40.8868
   XX=    97.3554   YX=     6.8352   ZX=    16.0694
   XY=     3.6409   YY=    93.6636   ZY=     4.3242
   XZ=     4.8158   YZ=     3.7498   ZZ=   130.8657
   Eigenvalues:    89.7120    97.6199   134.5528
  8  O    Isotropic =   282.6201   Anisotropy =    64.3253
   XX=   313.2594   YX=   -13.1109   ZX=    32.8745
   XY=   -13.3154   YY=   267.7830   ZY=    10.3150
   XZ=    14.4438   YZ=    -6.7377   ZZ=   266.8180
   Eigenvalues:   253.2665   269.0903   325.5037
  9  C    Isotropic =   141.5153   Anisotropy =    34.9859
   XX=   142.2185   YX=     2.0457   ZX=    14.7051
   XY=    -2.4357   YY=   121.7361   ZY=     1.5040
   XZ=     4.6802   YZ=     2.7048   ZZ=   160.5914
   Eigenvalues:   121.5942   138.1125   164.8393
 10  C    Isotropic =     0.7672   Anisotropy =   110.7740
   XX=    68.2593   YX=     4.4914   ZX=   -24.8275
   XY=    13.0268   YY=   -25.1918   ZY=    74.1283
   XZ=   -27.8174   YZ=    45.7738   ZZ=   -40.7659
   Eigenvalues:   -97.3984    25.0835    74.6165
 11  O    Isotropic =   106.9311   Anisotropy =   187.2445
   XX=   125.2417   YX=   -18.3154   ZX=   -53.5310
   XY=   -50.6326   YY=   141.0536   ZY=  -179.4228
   XZ=   -29.6492   YZ=   -73.8554   ZZ=    54.4980
   Eigenvalues:   -52.4026   141.4351   231.7607
 12  O    Isotropic =   -65.8240   Anisotropy =   495.8135
   XX=   223.9341   YX=   -42.3365   ZX=  -128.1666
   XY=   -35.7595   YY=  -281.2668   ZY=    21.9622
   XZ=  -114.8999   YZ=    40.0554   ZZ=  -140.1391
   Eigenvalues:  -288.2090  -173.9813   264.7184
 13  C    Isotropic =    96.8514   Anisotropy =    80.7761
   XX=   138.4241   YX=    19.5733   ZX=   -16.2025
   XY=    15.0855   YY=    80.4433   ZY=    -1.2618
   XZ=   -37.2968   YZ=    15.1360   ZZ=    71.6867
   Eigenvalues:    55.6278    84.2242   150.7021
 14  C    Isotropic =   164.7625   Anisotropy =    16.7946
   XX=   166.6350   YX=    10.1054   ZX=    -2.0396
   XY=     5.1186   YY=   157.7523   ZY=     9.3535
   XZ=   -12.5605   YZ=     6.6236   ZZ=   169.9002
   Eigenvalues:   148.1846   170.1439   175.9589
 15  O    Isotropic =   114.4742   Anisotropy =   126.5455
   XX=    54.1548   YX=   -59.4924   ZX=     9.9841
   XY=   -69.1021   YY=   169.5849   ZY=    17.7828
   XZ=   -24.4919   YZ=    -9.5987   ZZ=   119.6829
   Eigenvalues:    25.2078   119.3769   198.8379
 16  C    Isotropic =    46.8441   Anisotropy =   154.6633
   XX=    24.3543   YX=   -35.1505   ZX=     1.9637
   XY=   -31.1536   YY=   -33.3928   ZY=     8.7201
   XZ=     7.7527   YZ=     5.4898   ZZ=   149.5709
   Eigenvalues:   -48.8446    39.4240   149.9530
 17  C    Isotropic =    46.7677   Anisotropy =   100.8847
   XX=    47.6638   YX=    46.7556   ZX=    -1.7381
   XY=    44.4816   YY=   -21.1433   ZY=     6.3557
   XZ=    -1.6966   YZ=     5.0532   ZZ=   113.7826
   Eigenvalues:   -44.0954    70.3743   114.0242
 18  Cl   Isotropic =   708.6951   Anisotropy =   493.2369
   XX=   642.8785   YX=  -211.8647   ZX=    10.0568
   XY=  -212.9605   YY=   922.2329   ZY=   -16.9451
   XZ=    10.5379   YZ=   -14.6741   ZZ=   560.9737
   Eigenvalues:   528.2577   560.3078  1037.5196
 19  C    Isotropic =    42.3243   Anisotropy =   162.6672
   XX=   -55.8575   YX=    -1.4773   ZX=     2.4799
   XY=    -1.2171   YY=    32.4232   ZY=     6.0962
   XZ=     0.5275   YZ=     6.8133   ZZ=   150.4072
   Eigenvalues:   -55.8906    32.0943   150.7691
 20  C    Isotropic =    58.1227   Anisotropy =   147.1129
   XX=    26.4051   YX=   -32.7591   ZX=     2.9024
   XY=   -33.0871   YY=    -7.7648   ZY=     8.5762
   XZ=     2.9585   YZ=     8.7690   ZZ=   155.7278
   Eigenvalues:   -28.2060    46.3761   156.1980
 21  H    Isotropic =    23.3595   Anisotropy =    21.0016
   XX=    36.4510   YX=     4.8847   ZX=    -0.6361
   XY=     2.2989   YY=    22.7863   ZY=    -0.8443
   XZ=    -0.4675   YZ=    -1.1897   ZZ=    10.8411
   Eigenvalues:    10.7526    21.9652    37.3605
 22  H    Isotropic =    27.5718   Anisotropy =     6.0744
   XX=    29.8555   YX=     0.3791   ZX=     1.3534
   XY=     0.6588   YY=    24.4075   ZY=     1.2101
   XZ=     2.8874   YZ=     1.7385   ZZ=    28.4525
   Eigenvalues:    23.9218    27.1722    31.6214
 23  H    Isotropic =    26.8744   Anisotropy =     5.9282
   XX=    25.0262   YX=     1.0944   ZX=     1.3977
   XY=     0.5095   YY=    29.6065   ZY=     1.1196
   XZ=     1.2370   YZ=     3.0026   ZZ=    25.9906
   Eigenvalues:    24.0365    25.7602    30.8266
 24  H    Isotropic =    29.5482   Anisotropy =    16.5733
   XX=    37.5772   YX=    -5.5535   ZX=     2.2410
   XY=    -5.5365   YY=    23.2705   ZY=    -3.5716
   XZ=     3.2091   YZ=    -3.6124   ZZ=    27.7969
   Eigenvalues:    20.4198    27.6277    40.5970
 25  H    Isotropic =    28.9730   Anisotropy =     2.3794
   XX=    29.7311   YX=    -0.1855   ZX=    -0.1715
   XY=    -0.6206   YY=    29.8476   ZY=     0.2736
   XZ=     0.1522   YZ=     2.2935   ZZ=    27.3404
   Eigenvalues:    26.7923    29.5675    30.5593
 26  H    Isotropic =    28.9635   Anisotropy =     6.9549
   XX=    30.8143   YX=     3.2606   ZX=    -1.7433
   XY=     2.7562   YY=    27.4738   ZY=    -0.3657
   XZ=    -1.6853   YZ=    -2.6681   ZZ=    28.6024
   Eigenvalues:    25.6183    27.6721    33.6000
 27  H    Isotropic =    24.7603   Anisotropy =    11.6811
   XX=    23.2265   YX=    -0.2860   ZX=     2.7723
   XY=    -1.4652   YY=    20.6244   ZY=    -5.2891
   XZ=     3.7868   YZ=    -0.8514   ZZ=    30.4300
   Eigenvalues:    19.7408    21.9924    32.5477
 28  H    Isotropic =    26.2862   Anisotropy =     4.7053
   XX=    28.2446   YX=    -0.6188   ZX=     2.5435
   XY=     0.4056   YY=    25.1202   ZY=    -1.2723
   XZ=     1.4742   YZ=    -1.3093   ZZ=    25.4938
   Eigenvalues:    23.6023    25.8333    29.4231
 29  H    Isotropic =    30.2268   Anisotropy =     3.8167
   XX=    28.5659   YX=    -0.6596   ZX=     1.9729
   XY=     0.0063   YY=    30.0231   ZY=     0.5210
   XZ=     1.3208   YZ=     0.3529   ZZ=    32.0912
   Eigenvalues:    27.8179    30.0912    32.7712
 30  H    Isotropic =    30.5624   Anisotropy =     9.3185
   XX=    27.6506   YX=     1.2505   ZX=    -1.0418
   XY=     0.5243   YY=    36.1567   ZY=     1.4722
   XZ=    -1.0976   YZ=     3.0547   ZZ=    27.8800
   Eigenvalues:    26.1932    28.7193    36.7748
 31  H    Isotropic =    30.4458   Anisotropy =     7.8032
   XX=    33.2574   YX=     1.1136   ZX=    -3.4235
   XY=     0.3636   YY=    29.7201   ZY=     1.6222
   XZ=    -4.8904   YZ=     2.1104   ZZ=    28.3600
   Eigenvalues:    25.1238    30.5657    35.6479
 32  H    Isotropic =    23.3270   Anisotropy =    12.2820
   XX=    29.8758   YX=    -3.5351   ZX=    -0.2770
   XY=    -4.2225   YY=    22.2438   ZY=    -0.2197
   XZ=    -0.6317   YZ=     0.3142   ZZ=    17.8614
   Eigenvalues:    17.8411    20.6249    31.5150
 33  H    Isotropic =    24.0589   Anisotropy =     7.1400
   XX=    23.1867   YX=     0.1751   ZX=    -0.0690
   XY=     0.8458   YY=    28.7492   ZY=    -0.4696
   XZ=    -0.2609   YZ=    -0.3975   ZZ=    20.2408
   Eigenvalues:    20.2122    23.1456    28.8189
 34  H    Isotropic =    24.5247   Anisotropy =     5.6971
   XX=    27.4887   YX=    -1.2593   ZX=    -0.0735
   XY=    -2.0730   YY=    24.9925   ZY=    -0.2427
   XZ=    -0.0550   YZ=    -0.2475   ZZ=    21.0928
   Eigenvalues:    21.0725    24.1787    28.3227
 End of Minotr Frequency-dependent properties file   721 does not exist.
 End of Minotr Frequency-dependent properties file   722 does not exist.

 **********************************************************************

            Population analysis using the SCF density.

 **********************************************************************

 Orbital symmetries:
       Occupied  (A) (A) (A) (A) (A) (A) (A) (A) (A) (A) (A) (A)
                 (A) (A) (A) (A) (A) (A) (A) (A) (A) (A) (A) (A)
                 (A) (A) (A) (A) (A) (A) (A) (A) (A) (A) (A) (A)
                 (A) (A) (A) (A) (A) (A) (A) (A) (A) (A) (A) (A)
                 (A) (A) (A) (A) (A) (A) (A) (A) (A) (A) (A) (A)
                 (A) (A) (A) (A) (A) (A) (A) (A) (A) (A) (A) (A)
                 (A) (A) (A) (A) (A) (A)
       Virtual   (A) (A) (A) (A) (A) (A) (A) (A) (A) (A) (A) (A)
                 (A) (A) (A) (A) (A) (A) (A) (A) (A) (A) (A) (A)
                 (A) (A) (A) (A) (A) (A) (A) (A) (A) (A) (A) (A)
                 (A) (A) (A) (A) (A) (A) (A) (A) (A) (A) (A) (A)
                 (A) (A) (A) (A) (A) (A) (A) (A) (A) (A) (A) (A)
                 (A) (A) (A) (A) (A) (A) (A) (A) (A) (A) (A) (A)
                 (A) (A) (A) (A) (A) (A) (A) (A) (A) (A) (A) (A)
                 (A) (A) (A) (A) (A) (A) (A) (A) (A) (A) (A) (A)
                 (A) (A) (A) (A) (A) (A) (A) (A) (A) (A) (A) (A)
                 (A) (A) (A) (A) (A) (A) (A) (A) (A) (A) (A) (A)
                 (A) (A) (A) (A) (A) (A) (A) (A) (A) (A) (A) (A)
                 (A) (A) (A) (A) (A) (A) (A) (A) (A) (A) (A) (A)
                 (A) (A) (A) (A) (A) (A) (A) (A) (A) (A) (A) (A)
                 (A) (A) (A) (A) (A) (A) (A) (A) (A) (A) (A) (A)
                 (A) (A) (A) (A) (A) (A) (A) (A) (A) (A) (A) (A)
                 (A) (A) (A) (A) (A) (A) (A) (A) (A) (A) (A) (A)
                 (A) (A) (A) (A) (A) (A) (A) (A) (A) (A) (A) (A)
                 (A) (A) (A) (A) (A) (A) (A) (A) (A) (A) (A) (A)
                 (A) (A) (A) (A) (A) (A) (A) (A) (A) (A) (A) (A)
                 (A) (A) (A) (A) (A) (A) (A) (A) (A) (A) (A) (A)
                 (A) (A) (A) (A) (A) (A) (A) (A) (A) (A) (A) (A)
                 (A) (A) (A) (A) (A) (A) (A) (A) (A) (A) (A) (A)
                 (A) (A) (A) (A) (A) (A) (A) (A) (A) (A) (A) (A)
                 (A) (A) (A) (A) (A) (A) (A) (A) (A) (A) (A) (A)
                 (A) (A) (A) (A) (A) (A) (A) (A) (A) (A) (A) (A)
                 (A) (A) (A) (A) (A) (A) (A) (A) (A) (A) (A) (A)
                 (A) (A) (A) (A) (A) (A) (A) (A) (A) (A) (A) (A)
                 (A) (A) (A) (A) (A) (A) (A) (A) (A) (A) (A) (A)
                 (A) (A) (A) (A) (A) (A) (A) (A) (A) (A) (A) (A)
                 (A) (A) (A) (A) (A) (A) (A) (A) (A) (A) (A) (A)
                 (A) (A) (A) (A) (A) (A) (A) (A) (A) (A) (A) (A)
                 (A) (A) (A) (A) (A) (A) (A) (A) (A) (A) (A) (A)
                 (A) (A) (A) (A) (A) (A) (A) (A) (A) (A) (A) (A)
                 (A) (A) (A) (A) (A) (A) (A) (A) (A) (A) (A) (A)
                 (A) (A) (A) (A) (A) (A) (A) (A) (A) (A) (A) (A)
                 (A) (A) (A) (A) (A) (A) (A) (A) (A) (A) (A) (A)
                 (A) (A) (A) (A) (A) (A) (A) (A) (A) (A) (A) (A)
                 (A) (A) (A) (A) (A) (A) (A) (A) (A) (A) (A) (A)
                 (A) (A) (A) (A) (A) (A) (A) (A) (A) (A) (A) (A)
                 (A) (A) (A) (A) (A) (A) (A) (A) (A) (A) (A) (A)
                 (A) (A) (A) (A) (A) (A) (A) (A) (A) (A) (A) (A)
                 (A) (A) (A) (A) (A) (A) (A) (A) (A) (A) (A) (A)
                 (A) (A) (A) (A) (A) (A) (A) (A) (A) (A) (A) (A)
                 (A) (A) (A) (A) (A) (A) (A) (A) (A) (A) (A) (A)
                 (A) (A) (A) (A) (A) (A) (A) (A) (A) (A) (A) (A)
                 (A) (A) (A) (A) (A) (A) (A) (A) (A) (A) (A) (A)
 The electronic state is 1-A.
 Alpha  occ. eigenvalues -- -101.55991 -19.18442 -19.17790 -19.16265 -19.13458
 Alpha  occ. eigenvalues --  -19.12937 -14.30795 -10.32156 -10.28217 -10.25915
 Alpha  occ. eigenvalues --  -10.24029 -10.23941 -10.23860 -10.21286 -10.20735
 Alpha  occ. eigenvalues --  -10.19720 -10.19714 -10.18855 -10.18678 -10.16176
 Alpha  occ. eigenvalues --   -9.47442  -7.23878  -7.22938  -7.22910  -1.12535
 Alpha  occ. eigenvalues --   -1.11183  -1.07673  -1.04118  -1.03570  -0.92419
 Alpha  occ. eigenvalues --   -0.90160  -0.85083  -0.82000  -0.79222  -0.76893
 Alpha  occ. eigenvalues --   -0.74224  -0.71556  -0.67944  -0.65008  -0.62879
 Alpha  occ. eigenvalues --   -0.61878  -0.59342  -0.58890  -0.56009  -0.53599
 Alpha  occ. eigenvalues --   -0.52053  -0.51268  -0.50930  -0.49973  -0.48690
 Alpha  occ. eigenvalues --   -0.47996  -0.47807  -0.46258  -0.45322  -0.44890
 Alpha  occ. eigenvalues --   -0.43866  -0.42740  -0.42279  -0.41032  -0.40895
 Alpha  occ. eigenvalues --   -0.40422  -0.39420  -0.39118  -0.39016  -0.38610
 Alpha  occ. eigenvalues --   -0.37395  -0.36787  -0.35882  -0.34498  -0.34156
 Alpha  occ. eigenvalues --   -0.32667  -0.32403  -0.30563  -0.30035  -0.29023
 Alpha  occ. eigenvalues --   -0.28442  -0.25946  -0.23597
 Alpha virt. eigenvalues --   -0.06229  -0.02177  -0.01801  -0.00249   0.00757
 Alpha virt. eigenvalues --    0.00957   0.01615   0.01821   0.02671   0.02982
 Alpha virt. eigenvalues --    0.03381   0.04092   0.04367   0.04816   0.04834
 Alpha virt. eigenvalues --    0.05656   0.05973   0.06388   0.07054   0.07483
 Alpha virt. eigenvalues --    0.07820   0.08140   0.08575   0.08774   0.09204
 Alpha virt. eigenvalues --    0.09653   0.10193   0.10643   0.10875   0.11453
 Alpha virt. eigenvalues --    0.11578   0.12166   0.12849   0.13092   0.13425
 Alpha virt. eigenvalues --    0.13627   0.13749   0.13859   0.14551   0.15181
 Alpha virt. eigenvalues --    0.15414   0.15817   0.15922   0.16245   0.16637
 Alpha virt. eigenvalues --    0.16839   0.17212   0.17385   0.17472   0.18033
 Alpha virt. eigenvalues --    0.18773   0.18992   0.19581   0.19658   0.19967
 Alpha virt. eigenvalues --    0.20265   0.20392   0.20682   0.20924   0.21150
 Alpha virt. eigenvalues --    0.21319   0.22006   0.22219   0.22355   0.22913
 Alpha virt. eigenvalues --    0.23225   0.23970   0.24162   0.24567   0.24826
 Alpha virt. eigenvalues --    0.25077   0.25441   0.26272   0.26479   0.26789
 Alpha virt. eigenvalues --    0.27008   0.27228   0.27500   0.27861   0.28421
 Alpha virt. eigenvalues --    0.28841   0.28904   0.29302   0.29649   0.30013
 Alpha virt. eigenvalues --    0.30368   0.30807   0.31069   0.31374   0.31551
 Alpha virt. eigenvalues --    0.31779   0.32408   0.32962   0.33419   0.33860
 Alpha virt. eigenvalues --    0.34347   0.34750   0.35207   0.35879   0.36289
 Alpha virt. eigenvalues --    0.36654   0.37125   0.37539   0.37897   0.38455
 Alpha virt. eigenvalues --    0.38768   0.39709   0.39991   0.41006   0.41816
 Alpha virt. eigenvalues --    0.42359   0.42824   0.43085   0.43735   0.45132
 Alpha virt. eigenvalues --    0.45443   0.45633   0.46046   0.46323   0.47337
 Alpha virt. eigenvalues --    0.47715   0.48878   0.49751   0.50418   0.50893
 Alpha virt. eigenvalues --    0.51769   0.52274   0.52574   0.52668   0.53419
 Alpha virt. eigenvalues --    0.54106   0.54570   0.55308   0.55426   0.55892
 Alpha virt. eigenvalues --    0.56676   0.57702   0.58322   0.59206   0.59784
 Alpha virt. eigenvalues --    0.60171   0.60401   0.61023   0.61387   0.62611
 Alpha virt. eigenvalues --    0.62680   0.62914   0.63478   0.64391   0.65157
 Alpha virt. eigenvalues --    0.65459   0.65694   0.66495   0.67013   0.67108
 Alpha virt. eigenvalues --    0.67769   0.68139   0.69561   0.69991   0.70172
 Alpha virt. eigenvalues --    0.70795   0.71567   0.72168   0.72389   0.72696
 Alpha virt. eigenvalues --    0.73253   0.73884   0.74596   0.75205   0.76045
 Alpha virt. eigenvalues --    0.76610   0.77044   0.77578   0.78069   0.78946
 Alpha virt. eigenvalues --    0.79633   0.80395   0.80915   0.81814   0.82209
 Alpha virt. eigenvalues --    0.82473   0.83424   0.83484   0.84106   0.85962
 Alpha virt. eigenvalues --    0.87004   0.87728   0.88107   0.88441   0.89929
 Alpha virt. eigenvalues --    0.90250   0.90930   0.92631   0.93408   0.94684
 Alpha virt. eigenvalues --    0.95611   0.95827   0.97020   0.97238   0.98345
 Alpha virt. eigenvalues --    0.99271   1.00445   1.01402   1.02542   1.02938
 Alpha virt. eigenvalues --    1.03932   1.04577   1.05395   1.06082   1.07028
 Alpha virt. eigenvalues --    1.08332   1.09409   1.09853   1.09943   1.10933
 Alpha virt. eigenvalues --    1.11510   1.12003   1.12991   1.13627   1.14871
 Alpha virt. eigenvalues --    1.15344   1.15791   1.16602   1.17411   1.18166
 Alpha virt. eigenvalues --    1.18619   1.19197   1.19931   1.20149   1.21146
 Alpha virt. eigenvalues --    1.21450   1.21858   1.22869   1.23682   1.24190
 Alpha virt. eigenvalues --    1.25153   1.26023   1.26171   1.27621   1.28628
 Alpha virt. eigenvalues --    1.30576   1.31132   1.31234   1.32534   1.33297
 Alpha virt. eigenvalues --    1.33599   1.34665   1.35134   1.35718   1.36941
 Alpha virt. eigenvalues --    1.37408   1.38216   1.39092   1.40028   1.40789
 Alpha virt. eigenvalues --    1.40966   1.42577   1.43137   1.44254   1.45853
 Alpha virt. eigenvalues --    1.46622   1.48348   1.49647   1.50916   1.51959
 Alpha virt. eigenvalues --    1.53600   1.54447   1.55209   1.55669   1.57559
 Alpha virt. eigenvalues --    1.58266   1.58880   1.60694   1.62230   1.62761
 Alpha virt. eigenvalues --    1.63645   1.65434   1.66648   1.67869   1.68517
 Alpha virt. eigenvalues --    1.68880   1.69943   1.72099   1.72479   1.73867
 Alpha virt. eigenvalues --    1.74602   1.75089   1.75966   1.79099   1.79151
 Alpha virt. eigenvalues --    1.80498   1.82750   1.83438   1.85729   1.87012
 Alpha virt. eigenvalues --    1.90795   1.90949   1.91814   1.92470   1.93536
 Alpha virt. eigenvalues --    1.95083   1.95738   1.96118   1.96689   2.00312
 Alpha virt. eigenvalues --    2.00472   2.03917   2.05659   2.06473   2.07249
 Alpha virt. eigenvalues --    2.10417   2.12197   2.13664   2.13883   2.15358
 Alpha virt. eigenvalues --    2.15942   2.17519   2.18414   2.19716   2.23611
 Alpha virt. eigenvalues --    2.26680   2.27131   2.27997   2.28716   2.29115
 Alpha virt. eigenvalues --    2.29281   2.32237   2.32774   2.33035   2.35758
 Alpha virt. eigenvalues --    2.36245   2.36751   2.37754   2.38055   2.39397
 Alpha virt. eigenvalues --    2.40767   2.41013   2.41727   2.43474   2.45298
 Alpha virt. eigenvalues --    2.47288   2.48334   2.49010   2.50076   2.51373
 Alpha virt. eigenvalues --    2.52134   2.52348   2.52688   2.56381   2.59298
 Alpha virt. eigenvalues --    2.62254   2.62662   2.63915   2.64348   2.64656
 Alpha virt. eigenvalues --    2.65816   2.67270   2.68206   2.71383   2.73258
 Alpha virt. eigenvalues --    2.74400   2.77144   2.77875   2.79788   2.80848
 Alpha virt. eigenvalues --    2.81263   2.83719   2.84581   2.84953   2.85546
 Alpha virt. eigenvalues --    2.86704   2.87960   2.89143   2.90713   2.92051
 Alpha virt. eigenvalues --    2.93119   2.96960   2.97946   2.99255   3.00835
 Alpha virt. eigenvalues --    3.01047   3.03430   3.04183   3.06550   3.06727
 Alpha virt. eigenvalues --    3.08257   3.09260   3.10322   3.14603   3.15097
 Alpha virt. eigenvalues --    3.18273   3.18489   3.23452   3.24696   3.25922
 Alpha virt. eigenvalues --    3.26643   3.27759   3.29817   3.31706   3.33359
 Alpha virt. eigenvalues --    3.35605   3.36328   3.38097   3.38819   3.39104
 Alpha virt. eigenvalues --    3.40260   3.40571   3.40991   3.42160   3.43424
 Alpha virt. eigenvalues --    3.44700   3.45369   3.46853   3.48619   3.49878
 Alpha virt. eigenvalues --    3.50298   3.51535   3.52451   3.54248   3.55874
 Alpha virt. eigenvalues --    3.56533   3.57176   3.57515   3.58405   3.59038
 Alpha virt. eigenvalues --    3.59846   3.60056   3.61136   3.61495   3.62161
 Alpha virt. eigenvalues --    3.64295   3.65223   3.66552   3.67107   3.67444
 Alpha virt. eigenvalues --    3.67875   3.70510   3.71358   3.72038   3.72380
 Alpha virt. eigenvalues --    3.74973   3.76667   3.76771   3.77323   3.77919
 Alpha virt. eigenvalues --    3.81481   3.82548   3.83001   3.84904   3.85373
 Alpha virt. eigenvalues --    3.87371   3.88183   3.89453   3.91455   3.93043
 Alpha virt. eigenvalues --    3.94972   3.98160   3.99007   4.02832   4.05797
 Alpha virt. eigenvalues --    4.07343   4.10075   4.12052   4.15469   4.16331
 Alpha virt. eigenvalues --    4.19579   4.23898   4.26063   4.28446   4.31277
 Alpha virt. eigenvalues --    4.37020   4.37772   4.39297   4.40760   4.48310
 Alpha virt. eigenvalues --    4.55343   4.58437   4.58777   4.73485   4.77648
 Alpha virt. eigenvalues --    4.82186   5.01802   5.03561   5.07500   5.09219
 Alpha virt. eigenvalues --    5.10247   5.14575   5.15979   5.19642   5.22966
 Alpha virt. eigenvalues --    5.24831   5.26585   5.43439   5.46342   5.49619
 Alpha virt. eigenvalues --    5.55439   5.60817   5.64665   5.78312   5.82209
 Alpha virt. eigenvalues --    5.88265   6.02478   6.10628   6.75072   6.83831
 Alpha virt. eigenvalues --    6.84030   6.84581   6.90793   6.95635   6.96843
 Alpha virt. eigenvalues --    6.98735   7.00103   7.03373   7.04772   7.07454
 Alpha virt. eigenvalues --    7.08603   7.10149   7.13093   7.14180   7.20389
 Alpha virt. eigenvalues --    7.21124   7.29376   7.32357   7.33784   7.35957
 Alpha virt. eigenvalues --    7.37068   7.40003   7.53493   9.89817  23.66329
 Alpha virt. eigenvalues --   23.92691  23.94761  23.96697  23.97852  24.00556
 Alpha virt. eigenvalues --   24.01470  24.04023  24.06674  24.07654  24.13348
 Alpha virt. eigenvalues --   24.17030  24.30608  25.87429  26.28357  27.40604
 Alpha virt. eigenvalues --   35.77063  49.93769  50.00631  50.01966  50.02850
 Alpha virt. eigenvalues --   50.06086 215.90007
          Condensed to atoms (all electrons):
              1          2          3          4          5          6
     1  O    8.297287   0.406060   0.000647  -0.047070  -0.000900   0.011396
     2  C    0.406060   9.737662  -0.012778  -0.104057  -0.080022  -0.343758
     3  C    0.000647  -0.012778   7.719650  -0.167429  -0.117980   0.533682
     4  C   -0.047070  -0.104057  -0.167429   8.739818   0.568732  -3.925018
     5  N   -0.000900  -0.080022  -0.117980   0.568732   7.263626  -0.834588
     6  C    0.011396  -0.343758   0.533682  -3.925018  -0.834588  16.791034
     7  C   -0.002384   0.116992  -0.055328   0.260326   0.203669  -3.560912
     8  O    0.000028   0.002834  -0.003526   0.023537   0.010571  -0.084824
     9  C   -0.000093  -0.009740   0.004489   0.126570   0.037072   0.209055
    10  C    0.000052   0.001096  -0.001449  -0.082620  -0.019294   0.106846
    11  O   -0.000007   0.000808  -0.001156  -0.009585   0.007344  -0.064244
    12  O    0.000000  -0.000043  -0.000525   0.005933  -0.001365  -0.029567
    13  C   -0.022437  -0.013628  -0.268553   0.784867   0.466138  -4.425428
    14  C    0.009793  -0.049085   0.048262  -0.390922  -0.025101   0.924681
    15  O    0.012349  -0.027480   0.004585   0.277466  -0.057887  -0.514497
    16  C    0.026137  -0.287280   1.043488  -0.999789   0.051248   0.466975
    17  C   -0.037010  -1.262364  -0.966299   0.380296   0.011894  -0.059655
    18  Cl   0.000003   0.059730   0.105148  -0.039027  -0.001553   0.000615
    19  C    0.012811  -0.228474  -1.041338  -0.426128   0.007695  -0.070214
    20  C   -0.369206  -1.469846  -1.017779   0.217187  -0.049252   0.056475
    21  H    0.272247   0.007542  -0.052678  -0.002789  -0.000687  -0.020047
    22  H   -0.000062  -0.002479  -0.001001   0.013885  -0.030261   0.424641
    23  H    0.000000  -0.000666  -0.002187   0.019276  -0.007083   0.014519
    24  H   -0.000006   0.003232   0.003741   0.007747   0.002555   0.017716
    25  H    0.000000  -0.000036   0.000100  -0.004676  -0.001477   0.012664
    26  H    0.000000   0.000040  -0.000354   0.004277   0.001763  -0.008653
    27  H    0.000000   0.000025   0.000053  -0.003372  -0.000252  -0.012305
    28  H    0.000286   0.005650  -0.006220   0.041020   0.011028  -0.097560
    29  H   -0.000356   0.001508   0.003888   0.021058  -0.005431   0.008276
    30  H   -0.000551  -0.003397   0.002372  -0.007754   0.000453  -0.009469
    31  H   -0.000045   0.003048  -0.002427   0.006982   0.002304  -0.068369
    32  H   -0.000402   0.020545  -0.009185  -0.017616   0.009535   0.003555
    33  H   -0.000711   0.026838  -0.012061  -0.000369  -0.000046   0.000079
    34  H    0.002039  -0.183974   0.007501   0.011113   0.000050   0.000189
              7          8          9         10         11         12
     1  O   -0.002384   0.000028  -0.000093   0.000052  -0.000007   0.000000
     2  C    0.116992   0.002834  -0.009740   0.001096   0.000808  -0.000043
     3  C   -0.055328  -0.003526   0.004489  -0.001449  -0.001156  -0.000525
     4  C    0.260326   0.023537   0.126570  -0.082620  -0.009585   0.005933
     5  N    0.203669   0.010571   0.037072  -0.019294   0.007344  -0.001365
     6  C   -3.560912  -0.084824   0.209055   0.106846  -0.064244  -0.029567
     7  C    8.655412   0.359724  -1.067826   0.014045  -0.053771   0.009801
     8  O    0.359724   8.131118  -0.181479   0.046783   0.000000  -0.000208
     9  C   -1.067826  -0.181479   6.848948  -0.268570  -0.063558  -0.046434
    10  C    0.014045   0.046783  -0.268570   5.016719   0.388088   0.452715
    11  O   -0.053771   0.000000  -0.063558   0.388088   7.934249  -0.089947
    12  O    0.009801  -0.000208  -0.046434   0.452715  -0.089947   8.212745
    13  C    1.361034  -0.075201  -0.022622  -0.046589   0.069387   0.001619
    14  C   -0.412874   0.056919  -0.075525   0.070177   0.006847   0.000001
    15  O    0.074158   0.002756   0.000767  -0.003045   0.001722   0.000085
    16  C   -0.198486  -0.004828   0.010020  -0.000569  -0.001556   0.000477
    17  C   -0.046990   0.000005   0.006358  -0.000296  -0.000048   0.000042
    18  Cl   0.000785  -0.000003  -0.000051  -0.000002   0.000000   0.000000
    19  C   -0.017385   0.000520   0.002709  -0.000317  -0.000026   0.000003
    20  C    0.008145   0.000152  -0.002680   0.000783   0.000108  -0.000003
    21  H    0.001751   0.000063  -0.000005   0.000019   0.000008   0.000000
    22  H   -0.108776   0.009143   0.000871   0.022393   0.003995   0.001853
    23  H    0.437000  -0.051564  -0.069757   0.004522   0.001438  -0.004287
    24  H   -0.030904   0.278375   0.023371  -0.005191   0.000022   0.000085
    25  H   -0.020106   0.003891   0.418494  -0.044972  -0.007216   0.002002
    26  H   -0.044705   0.004669   0.437188  -0.050443   0.004754  -0.007437
    27  H    0.015735   0.000031  -0.004000  -0.007666   0.279585   0.010489
    28  H    0.018379  -0.000079   0.006833  -0.008367  -0.003637  -0.000175
    29  H   -0.023423  -0.007914   0.007374  -0.001587  -0.000077  -0.000004
    30  H    0.010720   0.001597  -0.000129   0.000138   0.000081  -0.000003
    31  H    0.027077  -0.003589  -0.006580  -0.002122   0.000145  -0.000012
    32  H   -0.000245  -0.000040   0.000230   0.000002   0.000000  -0.000001
    33  H    0.000003   0.000000   0.000000   0.000000   0.000000   0.000000
    34  H    0.000014   0.000000  -0.000001   0.000000   0.000000   0.000000
             13         14         15         16         17         18
     1  O   -0.022437   0.009793   0.012349   0.026137  -0.037010   0.000003
     2  C   -0.013628  -0.049085  -0.027480  -0.287280  -1.262364   0.059730
     3  C   -0.268553   0.048262   0.004585   1.043488  -0.966299   0.105148
     4  C    0.784867  -0.390922   0.277466  -0.999789   0.380296  -0.039027
     5  N    0.466138  -0.025101  -0.057887   0.051248   0.011894  -0.001553
     6  C   -4.425428   0.924681  -0.514497   0.466975  -0.059655   0.000615
     7  C    1.361034  -0.412874   0.074158  -0.198486  -0.046990   0.000785
     8  O   -0.075201   0.056919   0.002756  -0.004828   0.000005  -0.000003
     9  C   -0.022622  -0.075525   0.000767   0.010020   0.006358  -0.000051
    10  C   -0.046589   0.070177  -0.003045  -0.000569  -0.000296  -0.000002
    11  O    0.069387   0.006847   0.001722  -0.001556  -0.000048   0.000000
    12  O    0.001619   0.000001   0.000085   0.000477   0.000042   0.000000
    13  C    8.133135  -0.462887   0.438777  -0.204357   0.047887  -0.000761
    14  C   -0.462887   5.725701  -0.118442   0.023962   0.004353  -0.000226
    15  O    0.438777  -0.118442   8.454526  -0.041147  -0.013083  -0.000283
    16  C   -0.204357   0.023962  -0.041147   7.878549   0.455850   0.214596
    17  C    0.047887   0.004353  -0.013083   0.455850   9.446491  -0.639638
    18  Cl  -0.000761  -0.000226  -0.000283   0.214596  -0.639638  17.083605
    19  C   -0.012446  -0.000603   0.008107  -0.769290  -2.043055   0.272561
    20  C   -0.044821   0.018827   0.034793  -1.279565  -0.255454   0.035321
    21  H    0.038330  -0.010433   0.038158  -0.015063   0.001887   0.000073
    22  H   -0.025026   0.012493   0.002860   0.008612   0.001835   0.000014
    23  H   -0.032161   0.002502  -0.000764   0.000779   0.000609  -0.000007
    24  H   -0.007396   0.003732  -0.001073  -0.004513  -0.001076  -0.000009
    25  H   -0.010460   0.000753   0.000392  -0.000219   0.000002   0.000000
    26  H    0.005956   0.003853   0.000076   0.000047   0.000001   0.000000
    27  H   -0.000129  -0.000241   0.000023  -0.000077  -0.000003   0.000000
    28  H    0.463441  -0.065243  -0.031880  -0.000640  -0.000363   0.000000
    29  H   -0.032461   0.419696  -0.005406  -0.006397  -0.001071   0.000001
    30  H   -0.020794   0.403709  -0.001256   0.000800   0.000029  -0.000001
    31  H    0.007626   0.393849   0.010077  -0.001529  -0.000081   0.000000
    32  H    0.001083  -0.000074   0.000384   0.411281  -0.089372  -0.010188
    33  H    0.000023   0.000005   0.000001   0.015816  -0.062542  -0.003542
    34  H   -0.000060  -0.000067  -0.000050  -0.022149   0.056879  -0.000905
             19         20         21         22         23         24
     1  O    0.012811  -0.369206   0.272247  -0.000062   0.000000  -0.000006
     2  C   -0.228474  -1.469846   0.007542  -0.002479  -0.000666   0.003232
     3  C   -1.041338  -1.017779  -0.052678  -0.001001  -0.002187   0.003741
     4  C   -0.426128   0.217187  -0.002789   0.013885   0.019276   0.007747
     5  N    0.007695  -0.049252  -0.000687  -0.030261  -0.007083   0.002555
     6  C   -0.070214   0.056475  -0.020047   0.424641   0.014519   0.017716
     7  C   -0.017385   0.008145   0.001751  -0.108776   0.437000  -0.030904
     8  O    0.000520   0.000152   0.000063   0.009143  -0.051564   0.278375
     9  C    0.002709  -0.002680  -0.000005   0.000871  -0.069757   0.023371
    10  C   -0.000317   0.000783   0.000019   0.022393   0.004522  -0.005191
    11  O   -0.000026   0.000108   0.000008   0.003995   0.001438   0.000022
    12  O    0.000003  -0.000003   0.000000   0.001853  -0.004287   0.000085
    13  C   -0.012446  -0.044821   0.038330  -0.025026  -0.032161  -0.007396
    14  C   -0.000603   0.018827  -0.010433   0.012493   0.002502   0.003732
    15  O    0.008107   0.034793   0.038158   0.002860  -0.000764  -0.001073
    16  C   -0.769290  -1.279565  -0.015063   0.008612   0.000779  -0.004513
    17  C   -2.043055  -0.255454   0.001887   0.001835   0.000609  -0.001076
    18  Cl   0.272561   0.035321   0.000073   0.000014  -0.000007  -0.000009
    19  C   10.449089   0.162447  -0.001893   0.000216   0.000055   0.000151
    20  C    0.162447   9.431287   0.061278  -0.000493   0.000069   0.000054
    21  H   -0.001893   0.061278   0.292981   0.000096   0.000001  -0.000004
    22  H    0.000216  -0.000493   0.000096   0.564156  -0.006905  -0.000109
    23  H    0.000055   0.000069   0.000001  -0.006905   0.566109  -0.006141
    24  H    0.000151   0.000054  -0.000004  -0.000109  -0.006141   0.398780
    25  H   -0.000006   0.000014   0.000001   0.000315   0.005742  -0.000218
    26  H    0.000000   0.000002   0.000000   0.000137  -0.007620  -0.000339
    27  H   -0.000001   0.000004   0.000000  -0.000188   0.000043  -0.000003
    28  H    0.000211   0.000697  -0.000248  -0.011062  -0.000392  -0.000017
    29  H   -0.000127  -0.000661  -0.000156  -0.000352  -0.000197  -0.000599
    30  H    0.000028  -0.001196   0.000366  -0.000144   0.000052  -0.000063
    31  H   -0.000018   0.000199  -0.000008   0.000068  -0.000017  -0.000144
    32  H    0.017484  -0.002644   0.000037   0.000004   0.000013   0.000045
    33  H    0.415632  -0.041513   0.000016   0.000000   0.000000   0.000000
    34  H   -0.109432   0.589530   0.000929   0.000000   0.000000   0.000000
             25         26         27         28         29         30
     1  O    0.000000   0.000000   0.000000   0.000286  -0.000356  -0.000551
     2  C   -0.000036   0.000040   0.000025   0.005650   0.001508  -0.003397
     3  C    0.000100  -0.000354   0.000053  -0.006220   0.003888   0.002372
     4  C   -0.004676   0.004277  -0.003372   0.041020   0.021058  -0.007754
     5  N   -0.001477   0.001763  -0.000252   0.011028  -0.005431   0.000453
     6  C    0.012664  -0.008653  -0.012305  -0.097560   0.008276  -0.009469
     7  C   -0.020106  -0.044705   0.015735   0.018379  -0.023423   0.010720
     8  O    0.003891   0.004669   0.000031  -0.000079  -0.007914   0.001597
     9  C    0.418494   0.437188  -0.004000   0.006833   0.007374  -0.000129
    10  C   -0.044972  -0.050443  -0.007666  -0.008367  -0.001587   0.000138
    11  O   -0.007216   0.004754   0.279585  -0.003637  -0.000077   0.000081
    12  O    0.002002  -0.007437   0.010489  -0.000175  -0.000004  -0.000003
    13  C   -0.010460   0.005956  -0.000129   0.463441  -0.032461  -0.020794
    14  C    0.000753   0.003853  -0.000241  -0.065243   0.419696   0.403709
    15  O    0.000392   0.000076   0.000023  -0.031880  -0.005406  -0.001256
    16  C   -0.000219   0.000047  -0.000077  -0.000640  -0.006397   0.000800
    17  C    0.000002   0.000001  -0.000003  -0.000363  -0.001071   0.000029
    18  Cl   0.000000   0.000000   0.000000   0.000000   0.000001  -0.000001
    19  C   -0.000006   0.000000  -0.000001   0.000211  -0.000127   0.000028
    20  C    0.000014   0.000002   0.000004   0.000697  -0.000661  -0.001196
    21  H    0.000001   0.000000   0.000000  -0.000248  -0.000156   0.000366
    22  H    0.000315   0.000137  -0.000188  -0.011062  -0.000352  -0.000144
    23  H    0.005742  -0.007620   0.000043  -0.000392  -0.000197   0.000052
    24  H   -0.000218  -0.000339  -0.000003  -0.000017  -0.000599  -0.000063
    25  H    0.509995  -0.030951   0.001002  -0.002108  -0.000286   0.000086
    26  H   -0.030951   0.514746  -0.000525   0.000075  -0.000023  -0.000004
    27  H    0.001002  -0.000525   0.367843  -0.000263   0.000001   0.000002
    28  H   -0.002108   0.000075  -0.000263   0.544236   0.005767  -0.006758
    29  H   -0.000286  -0.000023   0.000001   0.005767   0.517593  -0.030928
    30  H    0.000086  -0.000004   0.000002  -0.006758  -0.030928   0.533851
    31  H    0.005743   0.000121   0.000004  -0.002068  -0.026094  -0.024128
    32  H   -0.000001   0.000000   0.000000  -0.000002   0.000008   0.000002
    33  H    0.000000   0.000000   0.000000   0.000000   0.000000   0.000000
    34  H    0.000000   0.000000   0.000000   0.000000   0.000000   0.000000
             31         32         33         34
     1  O   -0.000045  -0.000402  -0.000711   0.002039
     2  C    0.003048   0.020545   0.026838  -0.183974
     3  C   -0.002427  -0.009185  -0.012061   0.007501
     4  C    0.006982  -0.017616  -0.000369   0.011113
     5  N    0.002304   0.009535  -0.000046   0.000050
     6  C   -0.068369   0.003555   0.000079   0.000189
     7  C    0.027077  -0.000245   0.000003   0.000014
     8  O   -0.003589  -0.000040   0.000000   0.000000
     9  C   -0.006580   0.000230   0.000000  -0.000001
    10  C   -0.002122   0.000002   0.000000   0.000000
    11  O    0.000145   0.000000   0.000000   0.000000
    12  O   -0.000012  -0.000001   0.000000   0.000000
    13  C    0.007626   0.001083   0.000023  -0.000060
    14  C    0.393849  -0.000074   0.000005  -0.000067
    15  O    0.010077   0.000384   0.000001  -0.000050
    16  C   -0.001529   0.411281   0.015816  -0.022149
    17  C   -0.000081  -0.089372  -0.062542   0.056879
    18  Cl   0.000000  -0.010188  -0.003542  -0.000905
    19  C   -0.000018   0.017484   0.415632  -0.109432
    20  C    0.000199  -0.002644  -0.041513   0.589530
    21  H   -0.000008   0.000037   0.000016   0.000929
    22  H    0.000068   0.000004   0.000000   0.000000
    23  H   -0.000017   0.000013   0.000000   0.000000
    24  H   -0.000144   0.000045   0.000000   0.000000
    25  H    0.005743  -0.000001   0.000000   0.000000
    26  H    0.000121   0.000000   0.000000   0.000000
    27  H    0.000004   0.000000   0.000000   0.000000
    28  H   -0.002068  -0.000002   0.000000   0.000000
    29  H   -0.026094   0.000008   0.000000   0.000000
    30  H   -0.024128   0.000002   0.000000   0.000000
    31  H    0.532460  -0.000001   0.000000   0.000000
    32  H   -0.000001   0.497488  -0.000095   0.000043
    33  H    0.000000  -0.000095   0.516407  -0.004818
    34  H    0.000000   0.000043  -0.004818   0.517999
 Mulliken atomic charges:
              1
     1  O   -0.569899
     2  C   -0.314501
     3  C    0.262648
     4  C    0.718130
     5  N   -0.422499
     6  C    0.546711
     7  C    0.069349
     8  O   -0.519462
     9  C   -0.321298
    10  C    0.418722
    11  O   -0.403752
    12  O   -0.517839
    13  C   -0.091091
    14  C   -0.518393
    15  O   -0.545768
    16  C   -0.771181
    17  C    1.063982
    18  Cl  -0.076257
    19  C   -0.628965
    20  C   -0.082259
    21  H    0.388228
    22  H    0.119274
    23  H    0.137021
    24  H    0.318199
    25  H    0.161536
    26  H    0.173350
    27  H    0.354185
    28  H    0.139458
    29  H    0.158381
    30  H    0.152291
    31  H    0.147528
    32  H    0.168125
    33  H    0.150879
    34  H    0.135169
 Sum of Mulliken atomic charges =   0.00000
 Mulliken charges with hydrogens summed into heavy atoms:
              1
     1  O   -0.181671
     2  C   -0.314501
     3  C    0.262648
     4  C    0.718130
     5  N   -0.422499
     6  C    0.665985
     7  C    0.206370
     8  O   -0.201263
     9  C    0.013588
    10  C    0.418722
    11  O   -0.049567
    12  O   -0.517839
    13  C    0.048367
    14  C   -0.060194
    15  O   -0.545768
    16  C   -0.603057
    17  C    1.063982
    18  Cl  -0.076257
    19  C   -0.478087
    20  C    0.052910
 Sum of Mulliken charges with hydrogens summed into heavy atoms =   0.00000
 Electronic spatial extent (au):  <R**2>=           8075.2450
 Charge=              0.0000 electrons
 Dipole moment (field-independent basis, Debye):
    X=             -1.9376    Y=              4.6004    Z=             -0.5045  Tot=              5.0172
 Quadrupole moment (field-independent basis, Debye-Ang):
   XX=           -123.5237   YY=           -133.7780   ZZ=           -124.6861
   XY=             -9.9865   XZ=              3.5834   YZ=             -4.4618
 Traceless Quadrupole moment (field-independent basis, Debye-Ang):
   XX=              3.8056   YY=             -6.4487   ZZ=              2.6432
   XY=             -9.9865   XZ=              3.5834   YZ=             -4.4618
 Octapole moment (field-independent basis, Debye-Ang**2):
  XXX=             -4.9128  YYY=             10.0115  ZZZ=            -27.4931  XYY=             -4.0201
  XXY=            107.5796  XXZ=            -12.6524  XZZ=            -26.2004  YZZ=             11.0303
  YYZ=             14.7816  XYZ=             22.2458
 Hexadecapole moment (field-independent basis, Debye-Ang**3):
 XXXX=          -7970.8917 YYYY=          -1752.2859 ZZZZ=           -627.9370 XXXY=           -107.1857
 XXXZ=             18.9670 YYYX=           -110.0923 YYYZ=            -29.3424 ZZZX=            158.3846
 ZZZY=            -25.4677 XXYY=          -1856.9274 XXZZ=          -1455.7448 YYZZ=           -412.4895
 XXYZ=           -134.7504 YYXZ=            -42.7964 ZZXY=            -68.1610
 N-N= 1.685146530151D+03 E-N=-6.649594598379D+03  KE= 1.390546279651D+03
 1\1\GINC-PROD2-0062\SP\RB3LYP\6-311+G(2d,p)\C13H14Cl1N1O5\YUHENG\26-Ma
 r-2019\0\\# b3lyp/6-311+G(2d,p) nmr guess=read geom=check integral(ult
 rafinegrid) scrf=(iefpcm,read,solvent=methanol)\\Candidate Structure: 
 1b, Conformer: 3, NMR calculation with methanol solvation\\0,1\O,0,-0.
 857873086,4.9730705499,0.1523187636\C,0,-1.5746181306,3.857432258,-0.1
 014692829\C,0,-1.0865157114,2.7233902829,-0.7779772068\C,0,0.284609287
 5,2.6229456133,-1.3028393198\N,0,0.7475169056,1.6855932434,-2.03068157
 39\C,0,2.1810206425,1.9728660806,-2.1958893475\C,0,2.6722969394,1.4659
 100071,-3.5525486943\O,0,1.9748525972,2.0407284167,-4.6363678812\C,0,4
 .1619308548,1.7353844808,-3.7949464435\C,0,4.9950138057,1.1296028565,-
 2.6937214622\O,0,5.4066519375,2.0401705122,-1.8032283118\O,0,5.2392069
 815,-0.0530801664,-2.5911764618\C,0,2.3019524248,3.473248417,-1.848393
 9045\C,0,2.1451822373,4.4902118145,-2.9664022114\O,0,1.1460738994,3.62
 5757216,-0.9642781057\C,0,-1.9363560542,1.6245076934,-0.983239394\C,0,
 -3.2392181753,1.65876058,-0.5285962143\Cl,0,-4.2854592112,0.2831615234
 ,-0.7945978556\C,0,-3.7335693334,2.7791936199,0.1443642734\C,0,-2.9014
 738174,3.8652077533,0.3526041911\H,0,0.0532046477,4.8834987004,-0.1775
 282759\H,0,2.7158448502,1.3945361092,-1.4247668694\H,0,2.5201344728,0.
 3761434575,-3.5419486696\H,0,1.0315995414,1.8200995739,-4.5427395892\H
 ,0,4.3520268531,2.808131653,-3.8625952096\H,0,4.4433286529,1.263077488
 1,-4.7390320196\H,0,5.9137086777,1.5901997971,-1.093537224\H,0,3.18820
 11453,3.6757066487,-1.2438212872\H,0,1.22186344,4.3166385463,-3.523252
 0695\H,0,2.1204605657,5.4921446967,-2.5300456462\H,0,2.9763846873,4.43
 85704342,-3.6714530758\H,0,-1.5479726993,0.7539141338,-1.5028683708\H,
 0,-4.7594418353,2.7953755147,0.5008676852\H,0,-3.2601359932,4.74853549
 39,0.8724740644\\Version=EM64L-G09RevB.01\State=1-A\HF=-1395.245137\RM
 SD=2.625e-09\Dipole=1.054897,1.5939804,0.4927396\Quadrupole=6.4948741,
 -6.6645612,0.1696871,5.3434161,3.9688453,-1.7427279\PG=C01 [X(C13H14Cl
 1N1O5)]\\@


 ARTHROPOD AXIOM: A COMPUTER SYSTEM IS LIKE A SPIDER'S WEB.
 YOU CANNOT PULL ON ONE END WITHOUT MAKING THE OTHER END MOVE.
     -- GREG WETTSTEIN
 Job cpu time:  0 days  2 hours 33 minutes 49.7 seconds.
 File lengths (MBytes):  RWF=    332 Int=      0 D2E=      0 Chk=     30 Scr=      1
 Normal termination of Gaussian 09 at Tue Mar 26 03:00:11 2019.
