 Entering Gaussian System, Link 0=g09
 Initial command:
 /home/yuheng/proj/yuheng/g09/l1.exe /home/yuheng/proj/yuheng/g09_scratch/Gau-36783.inp -scrdir=/home/yuheng/proj/yuheng/g09_scratch/
 Entering Link 1 = /home/yuheng/proj/yuheng/g09/l1.exe PID=     36784.
  
 Copyright (c) 1988,1990,1992,1993,1995,1998,2003,2009,2010,
            Gaussian, Inc.  All Rights Reserved.
  
 This is part of the Gaussian(R) 09 program.  It is based on
 the Gaussian(R) 03 system (copyright 2003, Gaussian, Inc.),
 the Gaussian(R) 98 system (copyright 1998, Gaussian, Inc.),
 the Gaussian(R) 94 system (copyright 1995, Gaussian, Inc.),
 the Gaussian 92(TM) system (copyright 1992, Gaussian, Inc.),
 the Gaussian 90(TM) system (copyright 1990, Gaussian, Inc.),
 the Gaussian 88(TM) system (copyright 1988, Gaussian, Inc.),
 the Gaussian 86(TM) system (copyright 1986, Carnegie Mellon
 University), and the Gaussian 82(TM) system (copyright 1983,
 Carnegie Mellon University). Gaussian is a federally registered
 trademark of Gaussian, Inc.
  
 This software contains proprietary and confidential information,
 including trade secrets, belonging to Gaussian, Inc.
  
 This software is provided under written license and may be
 used, copied, transmitted, or stored only in accord with that
 written license.
  
 The following legend is applicable only to US Government
 contracts under FAR:
  
                    RESTRICTED RIGHTS LEGEND
  
 Use, reproduction and disclosure by the US Government is
 subject to restrictions as set forth in subparagraphs (a)
 and (c) of the Commercial Computer Software - Restricted
 Rights clause in FAR 52.227-19.
  
 Gaussian, Inc.
 340 Quinnipiac St., Bldg. 40, Wallingford CT 06492
  
  
 ---------------------------------------------------------------
 Warning -- This program may not be used in any manner that
 competes with the business of Gaussian, Inc. or will provide
 assistance to any competitor of Gaussian, Inc.  The licensee
 of this program is prohibited from giving any competitor of
 Gaussian, Inc. access to this program.  By using this program,
 the user acknowledges that Gaussian, Inc. is engaged in the
 business of creating and licensing software in the field of
 computational chemistry and represents and warrants to the
 licensee that it is not a competitor of Gaussian, Inc. and that
 it will not use this program in any manner prohibited above.
 ---------------------------------------------------------------
  

 Cite this work as:
 Gaussian 09, Revision B.01,
 M. J. Frisch, G. W. Trucks, H. B. Schlegel, G. E. Scuseria, 
 M. A. Robb, J. R. Cheeseman, G. Scalmani, V. Barone, B. Mennucci, 
 G. A. Petersson, H. Nakatsuji, M. Caricato, X. Li, H. P. Hratchian, 
 A. F. Izmaylov, J. Bloino, G. Zheng, J. L. Sonnenberg, M. Hada, 
 M. Ehara, K. Toyota, R. Fukuda, J. Hasegawa, M. Ishida, T. Nakajima, 
 Y. Honda, O. Kitao, H. Nakai, T. Vreven, J. A. Montgomery, Jr., 
 J. E. Peralta, F. Ogliaro, M. Bearpark, J. J. Heyd, E. Brothers, 
 K. N. Kudin, V. N. Staroverov, T. Keith, R. Kobayashi, J. Normand, 
 K. Raghavachari, A. Rendell, J. C. Burant, S. S. Iyengar, J. Tomasi, 
 M. Cossi, N. Rega, J. M. Millam, M. Klene, J. E. Knox, J. B. Cross, 
 V. Bakken, C. Adamo, J. Jaramillo, R. Gomperts, R. E. Stratmann, 
 O. Yazyev, A. J. Austin, R. Cammi, C. Pomelli, J. W. Ochterski, 
 R. L. Martin, K. Morokuma, V. G. Zakrzewski, G. A. Voth, 
 P. Salvador, J. J. Dannenberg, S. Dapprich, A. D. Daniels, 
 O. Farkas, J. B. Foresman, J. V. Ortiz, J. Cioslowski, 
 and D. J. Fox, Gaussian, Inc., Wallingford CT, 2010.
 
 ******************************************
 Gaussian 09:  EM64L-G09RevB.01 12-Aug-2010
                26-Mar-2019 
 ******************************************
 %mem=16gb
 %nprocshared=20
 Will use up to   20 processors via shared memory.
 %chk=1b-conf-18.chk
 ----------------------------------------------------------------------
 # b3lyp/6-311+G(2d,p) nmr guess=read geom=check integral(ultrafinegrid
 ) scrf=(iefpcm,read,solvent=methanol)
 ----------------------------------------------------------------------
 1/29=2,38=1,40=2/1;
 2/12=2,40=1/2;
 3/5=4,6=6,7=112,11=2,14=-4,16=1,25=1,30=1,70=2203,72=3,74=-5,75=-5,116=-2/1,2,8,3;
 4/5=1/1;
 5/5=2,38=6,53=3/2;
 8/6=1,10=90,11=11/1;
 10/13=100,45=16/2;
 6/7=2,8=2,9=2,10=2,28=1/1;
 99/9=1/99;
 ----------------------------------------------------------------------
 Candidate Structure: 1b, Conformer: 18, NMR calculation with methanol 
 solvation
 ----------------------------------------------------------------------
 Redundant internal coordinates taken from checkpoint file:
 1b-conf-18.chk
 Charge =  0 Multiplicity = 1
 O,0,-0.403911457,2.2534888477,-0.4099910657
 C,0,-1.4944877939,1.4835262658,-0.2560435959
 C,0,-1.435483199,0.0755349374,-0.2287033476
 C,0,-0.1419474963,-0.5895481765,-0.378296926
 N,0,0.9777943067,0.0236365999,-0.5017045911
 C,0,2.0074264272,-0.9989463862,-0.7168971201
 C,0,3.2819285792,-0.6903667907,0.0623113543
 O,0,4.2125229012,-1.6776299384,-0.3414531971
 C,0,3.7868128174,0.7230851006,-0.2576334034
 C,0,2.998445866,1.7758451698,0.4823220092
 O,0,2.6001282699,2.7836059173,-0.3027344366
 O,0,2.7821292848,1.749810858,1.6750367929
 C,0,1.2881764456,-2.3235657324,-0.3561975756
 C,0,1.5594324504,-2.8821187796,1.0268198087
 O,0,-0.1198640838,-1.9331596759,-0.4169206198
 C,0,-2.6067900837,-0.6756647866,-0.06242551
 C,0,-3.8187594858,-0.024893005,0.0758194084
 Cl,0,-5.2830827347,-0.9592367281,0.283381904
 C,0,-3.8920532457,1.3699080007,0.0528212234
 C,0,-2.7357156482,2.1157589001,-0.1123968182
 H,0,0.3914751975,1.6723452569,-0.5164555546
 H,0,2.2818881398,-0.9959220947,-1.7825896461
 H,0,3.092300828,-0.7518275422,1.1416553093
 H,0,4.9793870033,-1.6656078651,0.2566017169
 H,0,3.7716413776,0.9142395018,-1.333962123
 H,0,4.8229825404,0.80760961,0.091324412
 H,0,2.1439573244,3.4550141334,0.2491607271
 H,0,1.4325600346,-3.0852815926,-1.1243978092
 H,0,1.3342212349,-2.1390432066,1.7985778034
 H,0,0.9328283265,-3.7605329869,1.1968675725
 H,0,2.608899504,-3.1762981942,1.1110232919
 H,0,-2.5502509313,-1.7598610664,-0.0431299553
 H,0,-4.8526162191,1.8655207979,0.1633296593
 H,0,-2.7713811384,3.2009570533,-0.1340624683
 Recover connectivity data from disk.
                          Input orientation:                          
 ---------------------------------------------------------------------
 Center     Atomic      Atomic             Coordinates (Angstroms)
 Number     Number       Type             X           Y           Z
 ---------------------------------------------------------------------
      1          8           0       -0.403911    2.253489   -0.409991
      2          6           0       -1.494488    1.483526   -0.256044
      3          6           0       -1.435483    0.075535   -0.228703
      4          6           0       -0.141947   -0.589548   -0.378297
      5          7           0        0.977794    0.023637   -0.501705
      6          6           0        2.007426   -0.998946   -0.716897
      7          6           0        3.281929   -0.690367    0.062311
      8          8           0        4.212523   -1.677630   -0.341453
      9          6           0        3.786813    0.723085   -0.257633
     10          6           0        2.998446    1.775845    0.482322
     11          8           0        2.600128    2.783606   -0.302734
     12          8           0        2.782129    1.749811    1.675037
     13          6           0        1.288176   -2.323566   -0.356198
     14          6           0        1.559432   -2.882119    1.026820
     15          8           0       -0.119864   -1.933160   -0.416921
     16          6           0       -2.606790   -0.675665   -0.062426
     17          6           0       -3.818759   -0.024893    0.075819
     18         17           0       -5.283083   -0.959237    0.283382
     19          6           0       -3.892053    1.369908    0.052821
     20          6           0       -2.735716    2.115759   -0.112397
     21          1           0        0.391475    1.672345   -0.516456
     22          1           0        2.281888   -0.995922   -1.782590
     23          1           0        3.092301   -0.751828    1.141655
     24          1           0        4.979387   -1.665608    0.256602
     25          1           0        3.771641    0.914240   -1.333962
     26          1           0        4.822983    0.807610    0.091324
     27          1           0        2.143957    3.455014    0.249161
     28          1           0        1.432560   -3.085282   -1.124398
     29          1           0        1.334221   -2.139043    1.798578
     30          1           0        0.932828   -3.760533    1.196868
     31          1           0        2.608900   -3.176298    1.111023
     32          1           0       -2.550251   -1.759861   -0.043130
     33          1           0       -4.852616    1.865521    0.163330
     34          1           0       -2.771381    3.200957   -0.134062
 ---------------------------------------------------------------------
                    Distance matrix (angstroms):
                    1          2          3          4          5
     1  O    0.000000
     2  C    1.343837   0.000000
     3  C    2.416710   1.409492   0.000000
     4  C    2.855256   2.478296   1.462172   0.000000
     5  N    2.624836   2.881633   2.429224   1.282594   0.000000
     6  C    4.060428   4.317228   3.639570   2.214061   1.467013
     7  C    4.740757   5.257501   4.788034   3.453582   2.477287
     8  O    6.063816   6.524582   5.914919   4.488507   3.658341
     9  C    4.464025   5.335767   5.262370   4.143998   2.905062
    10  C    3.549704   4.562575   4.801702   4.024652   2.849838
    11  O    3.052341   4.296309   4.860585   4.347742   3.207645
    12  O    3.840819   4.699940   4.920943   4.270715   3.312628
    13  C    4.880111   4.716694   3.631840   2.247790   2.372102
    14  C    5.682747   5.480057   4.392445   3.181969   3.334382
    15  O    4.196279   3.686355   2.408554   1.344348   2.245238
    16  C    3.681497   2.436557   1.401395   2.486491   3.678483
    17  C    4.133790   2.790645   2.404751   3.747533   4.831441
    18  Cl   5.882915   4.539991   4.017089   5.196707   6.385999
    19  C    3.627953   2.420047   2.790949   4.253072   5.082850
    20  C    2.354749   1.400357   2.422116   3.757263   4.280034
    21  H    0.990809   1.913197   2.443436   2.328044   1.749922
    22  H    4.433533   4.768545   4.169105   2.830575   2.093043
    23  H    4.864466   5.290463   4.802420   3.577283   2.788031
    24  H    6.692053   7.217403   6.664657   5.271534   4.409231
    25  H    4.481356   5.405378   5.388800   4.300099   3.048181
    26  H    5.446311   6.363015   6.309259   5.179105   3.968850
    27  H    2.893057   4.168966   4.945870   4.688022   3.701093
    28  H    5.690824   5.495057   4.361044   3.043752   3.203113
    29  H    5.214712   5.034488   4.084787   3.052670   3.177345
    30  H    6.366893   5.958437   4.728273   3.700193   4.148145
    31  H    6.393207   6.357722   5.359694   4.059127   3.937128
    32  H    4.565998   3.417533   2.155417   2.698499   3.979731
    33  H    4.502243   3.405704   3.877440   5.339581   6.150487
    34  H    2.564906   2.143573   3.400271   4.619686   4.928168
                    6          7          8          9         10
     6  C    0.000000
     7  C    1.525366   0.000000
     8  O    2.337524   1.415528   0.000000
     9  C    2.518438   1.534640   2.439608   0.000000
    10  C    3.181150   2.517732   3.752210   1.509093   0.000000
    11  O    3.851042   3.559016   4.743832   2.378235   1.338115
    12  O    3.725209   2.967347   4.226063   2.408063   1.212452
    13  C    1.549852   2.611041   2.994871   3.941444   4.520321
    14  C    2.605300   2.949754   3.218983   4.428153   4.905493
    15  O    2.342671   3.653271   4.340572   4.726852   4.928409
    16  C    4.671599   5.890058   6.898175   6.547730   6.142094
    17  C    5.960002   7.131817   8.210186   7.649535   7.062733
    18  Cl   7.358917   8.572082   9.543219   9.240450   8.723759
    19  C    6.403733   7.463969   8.667589   7.712311   6.915796
    20  C    5.706506   6.642056   7.919614   6.671133   5.774932
    21  H    3.128462   3.777843   5.084620   3.535025   2.793665
    22  H    1.100472   2.120638   2.503787   2.746866   3.650476
    23  H    2.166157   1.097597   2.076444   2.148423   2.613935
    24  H    3.197606   1.967285   0.972571   2.718920   3.977270
    25  H    2.674603   2.182695   2.810202   1.093277   2.153853
    26  H    3.441544   2.149331   2.595452   1.096615   2.102212
    27  H    4.559569   4.302798   5.565233   3.227886   1.898453
    28  H    2.202118   3.250240   3.212893   4.560421   5.353886
    29  H    2.842647   2.984434   3.616249   4.293599   4.452923
    30  H    3.527551   4.028822   4.178674   5.510320   5.952213
    31  H    2.905843   2.780759   2.631977   4.297196   5.007069
    32  H    4.669623   5.930367   6.769850   6.809509   6.600406
    33  H    7.485997   8.527226   9.746049   8.724798   7.858052
    34  H    6.388731   7.198856   8.521651   7.011778   5.975096
                   11         12         13         14         15
    11  O    0.000000
    12  O    2.239070   0.000000
    13  C    5.273261   4.790637   0.000000
    14  C    5.911954   4.834247   1.516014   0.000000
    15  O    5.446033   5.134406   1.462423   2.409346   0.000000
    16  C    6.255901   6.159721   4.239416   4.838626   2.809228
    17  C    7.016629   7.019886   5.617057   6.163853   4.191193
    18  Cl   8.746280   8.621095   6.741803   7.146341   5.300734
    19  C    6.653825   6.878999   6.375251   6.981912   5.035904
    20  C    5.380844   5.811665   5.996561   6.687667   4.830026
    21  H    2.481678   3.244051   4.098422   4.948633   3.642944
    22  H    4.071373   4.443475   2.187395   3.460125   2.917513
    23  H    3.850686   2.576606   2.822904   2.626978   3.760679
    24  H    5.076340   4.301742   3.799140   3.710690   5.150493
    25  H    2.435242   3.275880   4.196070   4.987935   4.908407
    26  H    3.000154   2.749722   4.743352   5.013981   5.674668
    27  H    0.981565   2.312597   5.872887   6.411371   5.882259
    28  H    6.040049   5.747720   1.091416   2.164511   2.058623
    29  H    5.500046   4.151492   2.163152   1.094757   2.658042
    30  H    6.917691   5.832019   2.145497   1.092319   2.655516
    31  H    6.125295   4.961317   2.150395   1.093166   3.365436
    32  H    6.872910   6.610913   3.892210   4.392465   2.465062
    33  H    7.523530   7.783829   7.451690   8.024965   6.096360
    34  H    5.390338   6.018317   6.859279   7.556944   5.785301
                   16         17         18         19         20
    16  C    0.000000
    17  C    1.382565   0.000000
    18  Cl   2.713400   1.749378   0.000000
    19  C    2.418585   1.396915   2.722689   0.000000
    20  C    2.794846   2.406408   4.012645   1.385896   0.000000
    21  H    3.835217   4.577934   6.305995   4.331762   3.184211
    22  H    5.192370   6.450929   7.842090   6.861737   6.135833
    23  H    5.825397   7.030448   8.421799   7.380279   6.615246
    24  H    7.657144   8.951648  10.286786   9.378611   8.599866
    25  H    6.695445   7.777123   9.386892   7.801475   6.729158
    26  H    7.577946   8.681763  10.261149   8.733242   7.673765
    27  H    6.303110   6.906069   8.639890   6.389025   5.073020
    28  H    4.821866   6.195390   7.183437   7.041737   6.741624
    29  H    4.597432   5.830158   6.890317   6.532561   6.190279
    30  H    4.861186   6.147304   6.878900   7.135107   7.050049
    31  H    5.901997   7.233105   8.239159   8.003135   7.620206
    32  H    1.085841   2.152528   2.866353   3.406625   3.880673
    33  H    3.398871   2.156428   2.859890   1.086520   2.149398
    34  H    3.880776   3.398111   4.877511   2.154895   1.086000
                   21         22         23         24         25
    21  H    0.000000
    22  H    3.506623   0.000000
    23  H    3.990038   3.044267   0.000000
    24  H    5.726123   3.447213   2.275831   0.000000
    25  H    3.559293   2.463605   3.060386   3.262538   0.000000
    26  H    4.555812   3.636130   2.555445   2.483663   1.774297
    27  H    2.614435   4.894677   4.403796   5.853246   3.407517
    28  H    4.908000   2.349468   3.651677   4.062341   4.638037
    29  H    4.557942   3.876797   2.333829   3.986109   5.007630
    30  H    5.722299   4.282546   3.703873   4.652682   6.026397
    31  H    5.574496   3.637853   2.472382   2.937930   4.905346
    32  H    4.545089   5.192195   5.853054   7.536191   6.984510
    33  H    5.291495   7.929414   8.421956  10.447289   8.804808
    34  H    3.533630   6.772516   7.185731   9.160266   7.034201
                   26         27         28         29         30
    26  H    0.000000
    27  H    3.769727   0.000000
    28  H    5.303541   6.720730   0.000000
    29  H    4.875339   5.860874   3.073894   0.000000
    30  H    6.101103   7.377608   2.468597   1.775500   0.000000
    31  H    4.670489   6.703229   2.527680   1.781413   1.777052
    32  H    7.808621   7.022531   4.334589   4.315645   4.203822
    33  H    9.733528   7.175367   8.103834   7.549008   8.135850
    34  H    7.965756   4.936796   7.626971   7.007615   7.997180
                   31         32         33         34
    31  H    0.000000
    32  H    5.473134   0.000000
    33  H    9.054959   4.299640   0.000000
    34  H    8.436056   4.966577   2.490657   0.000000
 Stoichiometry    C13H14ClNO5
 Framework group  C1[X(C13H14ClNO5)]
 Deg. of freedom    96
 Full point group                 C1      NOp   1
 Largest Abelian subgroup         C1      NOp   1
 Largest concise Abelian subgroup C1      NOp   1
                         Standard orientation:                         
 ---------------------------------------------------------------------
 Center     Atomic      Atomic             Coordinates (Angstroms)
 Number     Number       Type             X           Y           Z
 ---------------------------------------------------------------------
      1          8           0       -0.403911    2.253489   -0.409991
      2          6           0       -1.494488    1.483526   -0.256044
      3          6           0       -1.435483    0.075535   -0.228703
      4          6           0       -0.141947   -0.589548   -0.378297
      5          7           0        0.977794    0.023637   -0.501705
      6          6           0        2.007426   -0.998946   -0.716897
      7          6           0        3.281929   -0.690367    0.062311
      8          8           0        4.212523   -1.677630   -0.341453
      9          6           0        3.786813    0.723085   -0.257633
     10          6           0        2.998446    1.775845    0.482322
     11          8           0        2.600128    2.783606   -0.302734
     12          8           0        2.782129    1.749811    1.675037
     13          6           0        1.288176   -2.323566   -0.356198
     14          6           0        1.559432   -2.882119    1.026820
     15          8           0       -0.119864   -1.933160   -0.416921
     16          6           0       -2.606790   -0.675665   -0.062426
     17          6           0       -3.818759   -0.024893    0.075819
     18         17           0       -5.283083   -0.959237    0.283382
     19          6           0       -3.892053    1.369908    0.052821
     20          6           0       -2.735716    2.115759   -0.112397
     21          1           0        0.391475    1.672345   -0.516456
     22          1           0        2.281888   -0.995922   -1.782590
     23          1           0        3.092301   -0.751828    1.141655
     24          1           0        4.979387   -1.665608    0.256602
     25          1           0        3.771641    0.914240   -1.333962
     26          1           0        4.822983    0.807610    0.091324
     27          1           0        2.143957    3.455014    0.249161
     28          1           0        1.432560   -3.085282   -1.124398
     29          1           0        1.334221   -2.139043    1.798578
     30          1           0        0.932828   -3.760533    1.196868
     31          1           0        2.608900   -3.176298    1.111023
     32          1           0       -2.550251   -1.759861   -0.043130
     33          1           0       -4.852616    1.865521    0.163330
     34          1           0       -2.771381    3.200957   -0.134062
 ---------------------------------------------------------------------
 Rotational constants (GHZ):      0.5573506      0.1787770      0.1431246
 Standard basis: 6-311+G(2d,p) (5D, 7F)
 There are   632 symmetry adapted basis functions of A   symmetry.
 Integral buffers will be    131072 words long.
 Raffenetti 2 integral format.
 Two-electron integral symmetry is turned on.
   632 basis functions,   969 primitive gaussians,   672 cartesian basis functions
    78 alpha electrons       78 beta electrons
       nuclear repulsion energy      1726.4501895408 Hartrees.
 NAtoms=   34 NActive=   34 NUniq=   34 SFac= 1.00D+00 NAtFMM=   50 NAOKFM=F Big=F
 Using the following non-standard input for PCM:
 radii=bondi
 --- end of non-standard input.
 ------------------------------------------------------------------------------
 Polarizable Continuum Model (PCM)
 =================================
 Model                : PCM.
 Atomic radii         : Bondi.
 Polarization charges : Total charges.
 Charge compensation  : None.
 Solution method      : Matrix inversion.
 Cavity type          : Scaled VdW (van der Waals Surface) (Alpha=1.100).
 Cavity algorithm     : GePol (No added spheres)
                        Default sphere list used, NSphG=   34.
                        Lebedev-Laikov grids with approx.  5.0 points / Ang**2.
                        Smoothing algorithm: Karplus/York (Gamma=1.0000).
                        Polarization charges: spherical gaussians, with
                                              point-specific exponents (IZeta= 3).
                        Self-potential: point-specific (ISelfS= 7).
                        Self-field    : sphere-specific E.n sum rule (ISelfD= 2).
 Solvent              : Methanol, Eps=  32.613000 Eps(inf)=   1.765709
 ------------------------------------------------------------------------------
 One-electron integrals computed using PRISM.
 NBasis=   632 RedAO= T  NBF=   632
 NBsUse=   630 1.00D-06 NBFU=   630
 Initial guess read from the checkpoint file:  1b-conf-18.chk
 B after Tr=     0.000000    0.000000    0.000000
         Rot=    1.000000    0.000000    0.000000    0.000000 Ang=   0.00 deg.
 Initial guess orbital symmetries:
       Occupied  (A) (A) (A) (A) (A) (A) (A) (A) (A) (A) (A) (A)
                 (A) (A) (A) (A) (A) (A) (A) (A) (A) (A) (A) (A)
                 (A) (A) (A) (A) (A) (A) (A) (A) (A) (A) (A) (A)
                 (A) (A) (A) (A) (A) (A) (A) (A) (A) (A) (A) (A)
                 (A) (A) (A) (A) (A) (A) (A) (A) (A) (A) (A) (A)
                 (A) (A) (A) (A) (A) (A) (A) (A) (A) (A) (A) (A)
                 (A) (A) (A) (A) (A) (A)
       Virtual   (A) (A) (A) (A) (A) (A) (A) (A) (A) (A) (A) (A)
                 (A) (A) (A) (A) (A) (A) (A) (A) (A) (A) (A) (A)
                 (A) (A) (A) (A) (A) (A) (A) (A) (A) (A) (A) (A)
                 (A) (A) (A) (A) (A) (A) (A) (A) (A) (A) (A) (A)
                 (A) (A) (A) (A) (A) (A) (A) (A) (A) (A) (A) (A)
                 (A) (A) (A) (A) (A) (A) (A) (A) (A) (A) (A) (A)
                 (A) (A) (A) (A) (A) (A) (A) (A) (A) (A) (A) (A)
                 (A) (A) (A) (A) (A) (A) (A) (A) (A) (A) (A) (A)
                 (A) (A) (A) (A) (A) (A) (A) (A) (A) (A) (A) (A)
                 (A) (A) (A) (A) (A) (A) (A) (A) (A) (A) (A) (A)
                 (A) (A) (A) (A) (A) (A) (A) (A) (A) (A) (A) (A)
                 (A) (A) (A) (A) (A) (A) (A) (A) (A) (A) (A) (A)
                 (A) (A) (A) (A) (A) (A) (A) (A) (A) (A) (A) (A)
                 (A) (A) (A) (A) (A) (A) (A) (A) (A) (A) (A) (A)
                 (A) (A) (A) (A) (A) (A) (A) (A) (A) (A) (A) (A)
                 (A) (A) (A) (A) (A) (A) (A) (A) (A) (A) (A) (A)
                 (A) (A) (A) (A) (A) (A) (A) (A) (A) (A) (A) (A)
                 (A) (A) (A) (A) (A) (A) (A) (A) (A) (A) (A) (A)
                 (A) (A) (A) (A) (A) (A) (A) (A) (A) (A) (A) (A)
                 (A) (A) (A) (A) (A) (A) (A) (A) (A) (A) (A) (A)
                 (A) (A) (A) (A) (A) (A) (A) (A) (A) (A) (A) (A)
                 (A) (A) (A) (A) (A) (A) (A) (A) (A) (A) (A) (A)
                 (A) (A) (A) (A) (A) (A) (A) (A) (A) (A) (A) (A)
                 (A) (A) (A) (A) (A) (A) (A) (A) (A) (A) (A) (A)
                 (A) (A) (A) (A) (A) (A) (A) (A) (A) (A) (A) (A)
                 (A) (A) (A) (A) (A) (A) (A) (A) (A) (A) (A) (A)
                 (A) (A) (A) (A) (A) (A) (A) (A) (A) (A) (A) (A)
                 (A) (A) (A) (A) (A) (A) (A) (A) (A) (A) (A) (A)
                 (A) (A) (A) (A) (A) (A) (A) (A) (A) (A) (A) (A)
                 (A) (A) (A) (A) (A) (A) (A) (A) (A) (A) (A) (A)
                 (A) (A) (A) (A) (A) (A) (A) (A) (A) (A) (A) (A)
                 (A) (A) (A) (A) (A) (A) (A) (A) (A) (A) (A) (A)
                 (A) (A) (A) (A) (A) (A) (A) (A) (A) (A) (A) (A)
                 (A) (A) (A) (A) (A) (A) (A) (A) (A) (A) (A) (A)
                 (A) (A) (A) (A) (A) (A) (A) (A) (A) (A) (A) (A)
                 (A) (A) (A) (A) (A) (A) (A) (A) (A) (A) (A) (A)
                 (A) (A) (A) (A) (A) (A) (A) (A) (A) (A) (A) (A)
                 (A) (A) (A) (A) (A) (A) (A) (A) (A) (A) (A) (A)
                 (A) (A) (A) (A) (A) (A) (A) (A) (A) (A) (A) (A)
                 (A) (A) (A) (A) (A) (A) (A) (A) (A) (A) (A) (A)
                 (A) (A) (A) (A) (A) (A) (A) (A) (A) (A) (A) (A)
                 (A) (A) (A) (A) (A) (A) (A) (A) (A) (A) (A) (A)
                 (A) (A) (A) (A) (A) (A) (A) (A) (A) (A) (A) (A)
                 (A) (A) (A) (A) (A) (A) (A) (A) (A) (A) (A) (A)
                 (A) (A) (A) (A) (A) (A) (A) (A) (A) (A) (A) (A)
                 (A) (A) (A) (A) (A) (A) (A) (A) (A) (A) (A) (A)
 Requested convergence on RMS density matrix=1.00D-08 within 128 cycles.
 Requested convergence on MAX density matrix=1.00D-06.
 Requested convergence on             energy=1.00D-06.
 No special actions if energy rises.
 Error on total polarization charges =  0.05010
 SCF Done:  E(RB3LYP) =  -1395.25597880     A.U. after   13 cycles
             Convg  =    0.4118D-08             -V/T =  2.0034
 Range of M.O.s used for correlation:     1   630
 NBasis=   632 NAE=    78 NBE=    78 NFC=     0 NFV=     0
 NROrb=    630 NOA=    78 NOB=    78 NVA=   552 NVB=   552

 **** Warning!!: The largest alpha MO coefficient is  0.13345733D+03

 NEqPCM:  Using equilibrium solvation (IEInf=0, Eps=  32.6130, EpsInf=   1.7657)
          Differentiating once with respect to magnetic field using GIAOs.
          Electric field/nuclear overlap derivatives assumed to be zero.
 FoFCou: FMM=F IPFlag=           0 FMFlag=    10101102 FMFlg1=           0
         NFxFlg=    40000000 DoJE=F BraDBF=F KetDBF=T FulRan=T
         Omega=  0.000000  0.000000  1.000000  0.000000  0.000000 ICntrl=    6100 IOpCl=  0
         NMat0=    1 NMatS0=    1 NMatT0=    0 NMatD0=    1 NMtDS0=    0 NMtDT0=    0
         I1Cent=           7 NGrid=        2488.
 Symmetry not used in FoFCou.
          There are     3 degrees of freedom in the 1st order CPHF.  IDoFFX=0.
      3 vectors produced by pass  0 Test12= 1.44D-12 3.33D-08 XBig12= 5.53D+02 1.05D+01.
 AX will form     3 AO Fock derivatives at one time.
      3 vectors produced by pass  1 Test12= 1.44D-12 3.33D-08 XBig12= 1.12D+00 3.43D-01.
      3 vectors produced by pass  2 Test12= 1.44D-12 3.33D-08 XBig12= 5.31D-03 3.97D-02.
      3 vectors produced by pass  3 Test12= 1.44D-12 3.33D-08 XBig12= 2.13D-05 1.58D-03.
      3 vectors produced by pass  4 Test12= 1.44D-12 3.33D-08 XBig12= 7.58D-08 1.14D-04.
      3 vectors produced by pass  5 Test12= 1.44D-12 3.33D-08 XBig12= 4.17D-10 6.74D-06.
      3 vectors produced by pass  6 Test12= 1.44D-12 3.33D-08 XBig12= 1.09D-12 2.21D-07.
 Inverted reduced A of dimension    21 with in-core refinement.
 Calculating GIAO nuclear magnetic shielding tensors.
 SCF GIAO Magnetic shielding tensor (ppm):
  1  O    Isotropic =   186.3120   Anisotropy =   135.8182
   XX=   152.4266   YX=    32.4842   ZX=    13.0472
   XY=    19.7094   YY=   130.3691   ZY=     1.7262
   XZ=    -5.0989   YZ=   -21.6384   ZZ=   276.1404
   Eigenvalues:   112.3934   169.6852   276.8575
  2  C    Isotropic =    16.8640   Anisotropy =   150.5795
   XX=   -39.9286   YX=   -29.4998   ZX=    21.1257
   XY=   -26.9644   YY=   -23.8515   ZY=     6.7428
   XZ=    21.2436   YZ=     4.4070   ZZ=   114.3720
   Eigenvalues:   -63.5672    -3.0912   117.2503
  3  C    Isotropic =    65.9023   Anisotropy =   141.9419
   XX=     9.6199   YX=    22.0186   ZX=    18.9499
   XY=     9.6075   YY=    29.9397   ZY=     1.6849
   XZ=    18.5237   YZ=    -0.2102   ZZ=   158.1474
   Eigenvalues:    -0.6707    37.8474   160.5303
  4  C    Isotropic =    10.9315   Anisotropy =    85.8636
   XX=    21.8717   YX=    39.0600   ZX=     6.9142
   XY=    43.4996   YY=   -55.1199   ZY=    -7.7473
   XZ=    12.5050   YZ=    -3.8278   ZZ=    66.0426
   Eigenvalues:   -73.6731    38.2936    68.1739
  5  N    Isotropic =    27.2607   Anisotropy =   219.8138
   XX=   -49.6371   YX=    84.0594   ZX=    39.1625
   XY=    70.3634   YY=   -36.8554   ZY=   -24.5002
   XZ=    30.9642   YZ=     4.6598   ZZ=   168.2748
   Eigenvalues:  -124.3557    32.3347   173.8033
  6  C    Isotropic =   104.7401   Anisotropy =    39.1984
   XX=   124.6493   YX=    -7.1942   ZX=     2.9583
   XY=   -12.2729   YY=   115.3873   ZY=     1.8073
   XZ=    -7.8515   YZ=    -1.8390   ZZ=    74.1836
   Eigenvalues:    74.0593   109.2886   130.8724
  7  C    Isotropic =   107.8447   Anisotropy =    49.0898
   XX=   119.2076   YX=   -20.3956   ZX=   -12.0719
   XY=   -17.2500   YY=   117.5095   ZY=     4.9960
   XZ=   -13.9217   YZ=     6.5678   ZZ=    86.8169
   Eigenvalues:    82.2228   100.7401   140.5712
  8  O    Isotropic =   271.8724   Anisotropy =    73.8229
   XX=   309.8939   YX=   -19.9521   ZX=    21.6142
   XY=    -0.3183   YY=   262.8731   ZY=     3.9209
   XZ=    33.8568   YZ=     3.1022   ZZ=   242.8503
   Eigenvalues:   231.3852   263.1444   321.0877
  9  C    Isotropic =   136.5340   Anisotropy =    35.1048
   XX=   132.3923   YX=    -2.4176   ZX=    -8.6707
   XY=    -4.5217   YY=   157.3342   ZY=    10.9128
   XZ=    -9.0417   YZ=     4.8121   ZZ=   119.8755
   Eigenvalues:   114.5776   135.0871   159.9372
 10  C    Isotropic =     0.2826   Anisotropy =   112.7408
   XX=    37.7734   YX=    64.8975   ZX=     1.1063
   XY=    70.6434   YY=   -54.2998   ZY=    17.6686
   XZ=   -10.3410   YZ=    41.3537   ZZ=    17.3741
   Eigenvalues:   -97.1866    22.5913    75.4431
 11  O    Isotropic =   105.6924   Anisotropy =   180.9772
   XX=   123.7096   YX=     9.4744   ZX=    51.2927
   XY=    -9.1525   YY=   172.9787   ZY=   -44.0765
   XZ=    94.7970   YZ=  -137.4428   ZZ=    20.3889
   Eigenvalues:   -48.0126   138.7459   226.3438
 12  O    Isotropic =   -57.6052   Anisotropy =   503.7213
   XX=   152.9810   YX=   194.5172   ZX=    70.6438
   XY=   194.4788   YY=  -104.0980   ZY=    99.4711
   XZ=    62.3773   YZ=    80.0354   ZZ=  -221.6986
   Eigenvalues:  -274.9871  -176.0374   278.2090
 13  C    Isotropic =    98.8218   Anisotropy =    77.3662
   XX=   146.4604   YX=   -16.4326   ZX=    -0.3988
   XY=   -15.1868   YY=    78.2749   ZY=    -6.6297
   XZ=     6.1076   YZ=   -21.9900   ZZ=    71.7302
   Eigenvalues:    59.5989    86.4673   150.3993
 14  C    Isotropic =   166.9459   Anisotropy =    22.6256
   XX=   169.8953   YX=    -3.9895   ZX=    -0.3748
   XY=    -5.0389   YY=   155.3662   ZY=    -8.2411
   XZ=     7.6336   YZ=   -12.2196   ZZ=   175.5763
   Eigenvalues:   150.6743   168.1338   182.0297
 15  O    Isotropic =   118.6647   Anisotropy =   116.3911
   XX=    38.4776   YX=    -4.9976   ZX=     5.0570
   XY=     7.8264   YY=   189.7255   ZY=   -19.9612
   XZ=    33.9752   YZ=   -21.8958   ZZ=   127.7910
   Eigenvalues:    34.1872   125.5480   196.2588
 16  C    Isotropic =    49.1688   Anisotropy =   156.2077
   XX=    38.7382   YX=    -0.8955   ZX=    14.7146
   XY=    -7.7687   YY=   -42.6245   ZY=     5.6411
   XZ=    13.9233   YZ=     5.3329   ZZ=   151.3927
   Eigenvalues:   -43.0572    37.2563   153.3072
 17  C    Isotropic =    48.0373   Anisotropy =    99.6299
   XX=    -3.5153   YX=   -52.6135   ZX=    16.3482
   XY=   -52.0862   YY=    35.4814   ZY=     8.4623
   XZ=    16.4218   YZ=     8.9048   ZZ=   112.1457
   Eigenvalues:   -42.0786    71.7331   114.4572
 18  Cl   Isotropic =   709.3523   Anisotropy =   495.8651
   XX=   884.8061   YX=   229.7307   ZX=   -46.8840
   XY=   228.3619   YY=   679.7745   ZY=   -31.5690
   XZ=   -46.6134   YZ=   -31.8926   ZZ=   563.4764
   Eigenvalues:   531.2924   556.8356  1039.9290
 19  C    Isotropic =    42.7224   Anisotropy =   162.6268
   XX=   -31.2390   YX=    37.5441   ZX=    22.5299
   XY=    37.5351   YY=    11.0851   ZY=    -1.5163
   XZ=    21.8679   YZ=     0.2540   ZZ=   148.3210
   Eigenvalues:   -55.0494    32.0763   151.1402
 20  C    Isotropic =    59.7927   Anisotropy =   146.8298
   XX=    48.9727   YX=     0.7779   ZX=    14.0944
   XY=     3.7783   YY=   -25.3452   ZY=     3.7931
   XZ=    13.8921   YZ=     5.2743   ZZ=   155.7507
   Eigenvalues:   -25.5093    47.2081   157.6793
 21  H    Isotropic =    20.3021   Anisotropy =    23.9409
   XX=    29.2137   YX=    -9.6509   ZX=    -0.9784
   XY=    -6.8422   YY=    26.4089   ZY=     0.6615
   XZ=    -1.0908   YZ=     1.9597   ZZ=     5.2837
   Eigenvalues:     5.1895    19.4541    36.2627
 22  H    Isotropic =    27.4354   Anisotropy =     4.0054
   XX=    26.9256   YX=     0.2854   ZX=    -0.8125
   XY=     0.0739   YY=    26.6752   ZY=     0.3936
   XZ=    -3.3825   YZ=     0.3225   ZZ=    28.7055
   Eigenvalues:    25.4387    26.7618    30.1057
 23  H    Isotropic =    27.1553   Anisotropy =     2.0785
   XX=    26.3777   YX=     0.8958   ZX=    -2.1350
   XY=    -0.2081   YY=    28.4462   ZY=     0.7498
   XZ=     0.3647   YZ=     0.0278   ZZ=    26.6420
   Eigenvalues:    25.5242    27.4007    28.5410
 24  H    Isotropic =    30.0059   Anisotropy =    18.6722
   XX=    37.9520   YX=    -3.2983   ZX=     8.4485
   XY=    -4.1753   YY=    25.0596   ZY=     0.1010
   XZ=     6.8137   YZ=     0.5811   ZZ=    27.0060
   Eigenvalues:    21.6842    25.8793    42.4540
 25  H    Isotropic =    28.8836   Anisotropy =     3.8212
   XX=    27.7042   YX=     0.0785   ZX=    -1.9458
   XY=     0.1074   YY=    29.8434   ZY=    -0.9634
   XZ=    -1.1076   YZ=    -2.2462   ZZ=    29.1032
   Eigenvalues:    26.5018    28.7179    31.4311
 26  H    Isotropic =    29.0504   Anisotropy =     6.5141
   XX=    32.8344   YX=     0.9745   ZX=     1.0215
   XY=     2.0358   YY=    28.6607   ZY=     0.4619
   XZ=     0.0746   YZ=     1.0032   ZZ=    25.6561
   Eigenvalues:    25.4812    28.2769    33.3932
 27  H    Isotropic =    24.8172   Anisotropy =    10.7148
   XX=    25.0947   YX=    -2.4269   ZX=    -1.2912
   XY=    -3.2778   YY=    30.2737   ZY=     4.2485
   XZ=     0.7841   YZ=     0.6227   ZZ=    19.0833
   Eigenvalues:    18.5573    23.9340    31.9604
 28  H    Isotropic =    26.5986   Anisotropy =     4.7815
   XX=    25.8601   YX=    -1.2741   ZX=    -0.8586
   XY=     0.1539   YY=    27.2895   ZY=     2.5534
   XZ=    -0.2625   YZ=     2.7257   ZZ=    26.6460
   Eigenvalues:    24.3071    25.7024    29.7862
 29  H    Isotropic =    30.5094   Anisotropy =     4.6797
   XX=    27.8426   YX=     0.0560   ZX=    -1.3443
   XY=     0.1208   YY=    30.2213   ZY=     0.5341
   XZ=    -0.0548   YZ=     0.5339   ZZ=    33.4642
   Eigenvalues:    27.7473    30.1517    33.6292
 30  H    Isotropic =    30.4853   Anisotropy =     9.5316
   XX=    29.2153   YX=     3.1416   ZX=    -0.1165
   XY=     3.0905   YY=    33.8953   ZY=    -2.7882
   XZ=    -0.7190   YZ=    -4.3948   ZZ=    28.3452
   Eigenvalues:    26.1206    28.4955    36.8396
 31  H    Isotropic =    30.2474   Anisotropy =     8.3321
   XX=    34.2807   YX=    -1.7734   ZX=     1.1179
   XY=    -1.8081   YY=    29.6240   ZY=    -3.3275
   XZ=     2.1385   YZ=    -3.6836   ZZ=    26.8375
   Eigenvalues:    24.4456    30.4944    35.8021
 32  H    Isotropic =    23.7463   Anisotropy =    12.3971
   XX=    31.8401   YX=    -0.7864   ZX=    -1.3595
   XY=    -0.5385   YY=    21.1432   ZY=     0.0143
   XZ=    -1.3160   YZ=     0.0602   ZZ=    18.2556
   Eigenvalues:    18.1248    21.1030    32.0111
 33  H    Isotropic =    24.0500   Anisotropy =     7.2346
   XX=    24.1697   YX=     2.4351   ZX=    -0.5083
   XY=     1.7329   YY=    27.8982   ZY=    -0.4109
   XZ=    -0.5636   YZ=    -0.4544   ZZ=    20.0821
   Eigenvalues:    20.0091    23.2678    28.8731
 34  H    Isotropic =    24.5451   Anisotropy =     6.0767
   XX=    28.5124   YX=    -0.6960   ZX=    -0.7940
   XY=     0.3606   YY=    24.1950   ZY=    -0.1734
   XZ=    -0.7570   YZ=    -0.1003   ZZ=    20.9279
   Eigenvalues:    20.8424    24.1966    28.5962
 End of Minotr Frequency-dependent properties file   721 does not exist.
 End of Minotr Frequency-dependent properties file   722 does not exist.

 **********************************************************************

            Population analysis using the SCF density.

 **********************************************************************

 Orbital symmetries:
       Occupied  (A) (A) (A) (A) (A) (A) (A) (A) (A) (A) (A) (A)
                 (A) (A) (A) (A) (A) (A) (A) (A) (A) (A) (A) (A)
                 (A) (A) (A) (A) (A) (A) (A) (A) (A) (A) (A) (A)
                 (A) (A) (A) (A) (A) (A) (A) (A) (A) (A) (A) (A)
                 (A) (A) (A) (A) (A) (A) (A) (A) (A) (A) (A) (A)
                 (A) (A) (A) (A) (A) (A) (A) (A) (A) (A) (A) (A)
                 (A) (A) (A) (A) (A) (A)
       Virtual   (A) (A) (A) (A) (A) (A) (A) (A) (A) (A) (A) (A)
                 (A) (A) (A) (A) (A) (A) (A) (A) (A) (A) (A) (A)
                 (A) (A) (A) (A) (A) (A) (A) (A) (A) (A) (A) (A)
                 (A) (A) (A) (A) (A) (A) (A) (A) (A) (A) (A) (A)
                 (A) (A) (A) (A) (A) (A) (A) (A) (A) (A) (A) (A)
                 (A) (A) (A) (A) (A) (A) (A) (A) (A) (A) (A) (A)
                 (A) (A) (A) (A) (A) (A) (A) (A) (A) (A) (A) (A)
                 (A) (A) (A) (A) (A) (A) (A) (A) (A) (A) (A) (A)
                 (A) (A) (A) (A) (A) (A) (A) (A) (A) (A) (A) (A)
                 (A) (A) (A) (A) (A) (A) (A) (A) (A) (A) (A) (A)
                 (A) (A) (A) (A) (A) (A) (A) (A) (A) (A) (A) (A)
                 (A) (A) (A) (A) (A) (A) (A) (A) (A) (A) (A) (A)
                 (A) (A) (A) (A) (A) (A) (A) (A) (A) (A) (A) (A)
                 (A) (A) (A) (A) (A) (A) (A) (A) (A) (A) (A) (A)
                 (A) (A) (A) (A) (A) (A) (A) (A) (A) (A) (A) (A)
                 (A) (A) (A) (A) (A) (A) (A) (A) (A) (A) (A) (A)
                 (A) (A) (A) (A) (A) (A) (A) (A) (A) (A) (A) (A)
                 (A) (A) (A) (A) (A) (A) (A) (A) (A) (A) (A) (A)
                 (A) (A) (A) (A) (A) (A) (A) (A) (A) (A) (A) (A)
                 (A) (A) (A) (A) (A) (A) (A) (A) (A) (A) (A) (A)
                 (A) (A) (A) (A) (A) (A) (A) (A) (A) (A) (A) (A)
                 (A) (A) (A) (A) (A) (A) (A) (A) (A) (A) (A) (A)
                 (A) (A) (A) (A) (A) (A) (A) (A) (A) (A) (A) (A)
                 (A) (A) (A) (A) (A) (A) (A) (A) (A) (A) (A) (A)
                 (A) (A) (A) (A) (A) (A) (A) (A) (A) (A) (A) (A)
                 (A) (A) (A) (A) (A) (A) (A) (A) (A) (A) (A) (A)
                 (A) (A) (A) (A) (A) (A) (A) (A) (A) (A) (A) (A)
                 (A) (A) (A) (A) (A) (A) (A) (A) (A) (A) (A) (A)
                 (A) (A) (A) (A) (A) (A) (A) (A) (A) (A) (A) (A)
                 (A) (A) (A) (A) (A) (A) (A) (A) (A) (A) (A) (A)
                 (A) (A) (A) (A) (A) (A) (A) (A) (A) (A) (A) (A)
                 (A) (A) (A) (A) (A) (A) (A) (A) (A) (A) (A) (A)
                 (A) (A) (A) (A) (A) (A) (A) (A) (A) (A) (A) (A)
                 (A) (A) (A) (A) (A) (A) (A) (A) (A) (A) (A) (A)
                 (A) (A) (A) (A) (A) (A) (A) (A) (A) (A) (A) (A)
                 (A) (A) (A) (A) (A) (A) (A) (A) (A) (A) (A) (A)
                 (A) (A) (A) (A) (A) (A) (A) (A) (A) (A) (A) (A)
                 (A) (A) (A) (A) (A) (A) (A) (A) (A) (A) (A) (A)
                 (A) (A) (A) (A) (A) (A) (A) (A) (A) (A) (A) (A)
                 (A) (A) (A) (A) (A) (A) (A) (A) (A) (A) (A) (A)
                 (A) (A) (A) (A) (A) (A) (A) (A) (A) (A) (A) (A)
                 (A) (A) (A) (A) (A) (A) (A) (A) (A) (A) (A) (A)
                 (A) (A) (A) (A) (A) (A) (A) (A) (A) (A) (A) (A)
                 (A) (A) (A) (A) (A) (A) (A) (A) (A) (A) (A) (A)
                 (A) (A) (A) (A) (A) (A) (A) (A) (A) (A) (A) (A)
                 (A) (A) (A) (A) (A) (A) (A) (A) (A) (A) (A) (A)
 The electronic state is 1-A.
 Alpha  occ. eigenvalues -- -101.55943 -19.18110 -19.17327 -19.15436 -19.13789
 Alpha  occ. eigenvalues --  -19.12468 -14.31421 -10.31871 -10.28430 -10.25548
 Alpha  occ. eigenvalues --  -10.23833 -10.23772 -10.23613 -10.21417 -10.20433
 Alpha  occ. eigenvalues --  -10.19807 -10.19658 -10.18579 -10.18553 -10.16187
 Alpha  occ. eigenvalues --   -9.47394  -7.23829  -7.22889  -7.22864  -1.12247
 Alpha  occ. eigenvalues --   -1.11066  -1.07276  -1.04159  -1.03193  -0.92695
 Alpha  occ. eigenvalues --   -0.90165  -0.85042  -0.81907  -0.78810  -0.76987
 Alpha  occ. eigenvalues --   -0.74051  -0.71518  -0.67969  -0.64566  -0.63181
 Alpha  occ. eigenvalues --   -0.61279  -0.59211  -0.58605  -0.55045  -0.54766
 Alpha  occ. eigenvalues --   -0.52554  -0.50751  -0.50546  -0.49629  -0.49474
 Alpha  occ. eigenvalues --   -0.47766  -0.47133  -0.46360  -0.44768  -0.44136
 Alpha  occ. eigenvalues --   -0.43609  -0.43189  -0.41942  -0.41200  -0.41090
 Alpha  occ. eigenvalues --   -0.39792  -0.39457  -0.39084  -0.38843  -0.38419
 Alpha  occ. eigenvalues --   -0.37757  -0.37088  -0.36222  -0.34376  -0.33537
 Alpha  occ. eigenvalues --   -0.32382  -0.32372  -0.30450  -0.30177  -0.28881
 Alpha  occ. eigenvalues --   -0.28511  -0.26253  -0.23410
 Alpha virt. eigenvalues --   -0.06034  -0.02060  -0.01308   0.00062   0.00848
 Alpha virt. eigenvalues --    0.01121   0.01271   0.01935   0.02696   0.03239
 Alpha virt. eigenvalues --    0.03487   0.03878   0.04547   0.04941   0.05197
 Alpha virt. eigenvalues --    0.05539   0.06075   0.06822   0.07328   0.07406
 Alpha virt. eigenvalues --    0.07681   0.08124   0.08277   0.08754   0.09419
 Alpha virt. eigenvalues --    0.09869   0.10228   0.10778   0.11140   0.11535
 Alpha virt. eigenvalues --    0.11961   0.12572   0.12848   0.13300   0.13566
 Alpha virt. eigenvalues --    0.14203   0.14386   0.14471   0.15145   0.15219
 Alpha virt. eigenvalues --    0.15397   0.15905   0.15958   0.16178   0.16842
 Alpha virt. eigenvalues --    0.17041   0.17271   0.17847   0.17971   0.18181
 Alpha virt. eigenvalues --    0.18644   0.19274   0.19385   0.19789   0.20171
 Alpha virt. eigenvalues --    0.20246   0.20597   0.20952   0.21199   0.21594
 Alpha virt. eigenvalues --    0.21740   0.22157   0.22420   0.22753   0.22947
 Alpha virt. eigenvalues --    0.23317   0.23527   0.24133   0.24805   0.24881
 Alpha virt. eigenvalues --    0.25257   0.25626   0.25828   0.26302   0.26457
 Alpha virt. eigenvalues --    0.26840   0.27173   0.27583   0.28139   0.28211
 Alpha virt. eigenvalues --    0.28746   0.28955   0.29699   0.29872   0.30594
 Alpha virt. eigenvalues --    0.30769   0.31458   0.31814   0.31830   0.32391
 Alpha virt. eigenvalues --    0.32655   0.33210   0.33318   0.33930   0.34121
 Alpha virt. eigenvalues --    0.34801   0.34979   0.35067   0.35663   0.36270
 Alpha virt. eigenvalues --    0.36807   0.37457   0.37851   0.38393   0.39118
 Alpha virt. eigenvalues --    0.40076   0.40795   0.41242   0.42348   0.42851
 Alpha virt. eigenvalues --    0.43152   0.43398   0.44014   0.44751   0.45094
 Alpha virt. eigenvalues --    0.45215   0.45458   0.46425   0.47330   0.47494
 Alpha virt. eigenvalues --    0.48119   0.48472   0.48697   0.49790   0.50471
 Alpha virt. eigenvalues --    0.51062   0.52549   0.52932   0.53218   0.53343
 Alpha virt. eigenvalues --    0.53547   0.54158   0.55091   0.55802   0.56738
 Alpha virt. eigenvalues --    0.56930   0.57838   0.58517   0.59332   0.60045
 Alpha virt. eigenvalues --    0.60188   0.60264   0.60497   0.61209   0.62609
 Alpha virt. eigenvalues --    0.63115   0.63853   0.64287   0.64581   0.64823
 Alpha virt. eigenvalues --    0.65813   0.66656   0.66823   0.67221   0.67453
 Alpha virt. eigenvalues --    0.68390   0.68587   0.69237   0.69850   0.70364
 Alpha virt. eigenvalues --    0.70810   0.71621   0.71778   0.72598   0.73266
 Alpha virt. eigenvalues --    0.73831   0.74366   0.74704   0.75713   0.76182
 Alpha virt. eigenvalues --    0.76835   0.77511   0.77906   0.78206   0.78812
 Alpha virt. eigenvalues --    0.79821   0.80026   0.80915   0.81624   0.81999
 Alpha virt. eigenvalues --    0.82659   0.83760   0.84074   0.84675   0.86827
 Alpha virt. eigenvalues --    0.87361   0.88390   0.88569   0.89201   0.90533
 Alpha virt. eigenvalues --    0.90885   0.91891   0.92811   0.94077   0.95054
 Alpha virt. eigenvalues --    0.95942   0.96764   0.97812   0.98031   0.98432
 Alpha virt. eigenvalues --    1.00393   1.01796   1.02082   1.02820   1.03856
 Alpha virt. eigenvalues --    1.04310   1.05085   1.06902   1.07096   1.07878
 Alpha virt. eigenvalues --    1.09343   1.09390   1.10680   1.11407   1.11895
 Alpha virt. eigenvalues --    1.13261   1.13447   1.14476   1.15227   1.15681
 Alpha virt. eigenvalues --    1.16775   1.16973   1.17474   1.17890   1.18523
 Alpha virt. eigenvalues --    1.19208   1.20000   1.20411   1.21142   1.21838
 Alpha virt. eigenvalues --    1.23653   1.24350   1.24413   1.25047   1.25147
 Alpha virt. eigenvalues --    1.26140   1.27185   1.27333   1.28239   1.28995
 Alpha virt. eigenvalues --    1.29843   1.30762   1.31944   1.32360   1.32421
 Alpha virt. eigenvalues --    1.33523   1.34210   1.35106   1.35190   1.36017
 Alpha virt. eigenvalues --    1.36524   1.37531   1.38257   1.39225   1.39945
 Alpha virt. eigenvalues --    1.42162   1.42915   1.43596   1.44528   1.45753
 Alpha virt. eigenvalues --    1.47077   1.49373   1.50574   1.51504   1.52757
 Alpha virt. eigenvalues --    1.53158   1.55081   1.55732   1.56741   1.58387
 Alpha virt. eigenvalues --    1.59681   1.59894   1.61277   1.61866   1.62949
 Alpha virt. eigenvalues --    1.63621   1.63898   1.65601   1.66844   1.68554
 Alpha virt. eigenvalues --    1.69841   1.72484   1.73793   1.74600   1.75174
 Alpha virt. eigenvalues --    1.75837   1.76883   1.77255   1.78954   1.79846
 Alpha virt. eigenvalues --    1.80934   1.81806   1.84947   1.85605   1.87346
 Alpha virt. eigenvalues --    1.89155   1.89435   1.90140   1.92436   1.93212
 Alpha virt. eigenvalues --    1.93693   1.95791   1.96418   1.97480   2.00215
 Alpha virt. eigenvalues --    2.03381   2.04822   2.06003   2.07142   2.08281
 Alpha virt. eigenvalues --    2.10265   2.11668   2.12098   2.13944   2.15946
 Alpha virt. eigenvalues --    2.16711   2.19201   2.20869   2.21680   2.22920
 Alpha virt. eigenvalues --    2.23820   2.25828   2.27613   2.28317   2.29021
 Alpha virt. eigenvalues --    2.29868   2.31675   2.34314   2.35580   2.36048
 Alpha virt. eigenvalues --    2.36723   2.37960   2.38298   2.39255   2.40662
 Alpha virt. eigenvalues --    2.41947   2.43470   2.43854   2.44396   2.45414
 Alpha virt. eigenvalues --    2.47112   2.49089   2.49466   2.50875   2.51533
 Alpha virt. eigenvalues --    2.52182   2.53197   2.55271   2.57244   2.59622
 Alpha virt. eigenvalues --    2.61837   2.63265   2.63960   2.64666   2.66211
 Alpha virt. eigenvalues --    2.66488   2.67210   2.69439   2.71416   2.71671
 Alpha virt. eigenvalues --    2.74953   2.75925   2.77220   2.79742   2.80812
 Alpha virt. eigenvalues --    2.82700   2.83660   2.84208   2.84736   2.85222
 Alpha virt. eigenvalues --    2.86458   2.87632   2.88617   2.90083   2.91379
 Alpha virt. eigenvalues --    2.92580   2.95362   2.97687   2.99159   3.01298
 Alpha virt. eigenvalues --    3.02176   3.03860   3.05750   3.07042   3.09169
 Alpha virt. eigenvalues --    3.09591   3.10277   3.12142   3.15387   3.17575
 Alpha virt. eigenvalues --    3.18014   3.20094   3.23497   3.24989   3.26048
 Alpha virt. eigenvalues --    3.27388   3.28786   3.30365   3.30588   3.33825
 Alpha virt. eigenvalues --    3.35513   3.35916   3.36497   3.37592   3.38890
 Alpha virt. eigenvalues --    3.40509   3.41565   3.41584   3.42524   3.43015
 Alpha virt. eigenvalues --    3.44285   3.45236   3.45697   3.48959   3.49458
 Alpha virt. eigenvalues --    3.50888   3.52072   3.52336   3.53341   3.54904
 Alpha virt. eigenvalues --    3.56400   3.56891   3.57773   3.57996   3.58509
 Alpha virt. eigenvalues --    3.59153   3.60500   3.61029   3.62003   3.62731
 Alpha virt. eigenvalues --    3.63162   3.65184   3.65884   3.67508   3.68063
 Alpha virt. eigenvalues --    3.69801   3.70681   3.72639   3.73181   3.74393
 Alpha virt. eigenvalues --    3.75567   3.77383   3.77426   3.78833   3.79283
 Alpha virt. eigenvalues --    3.79721   3.81686   3.83142   3.85894   3.87509
 Alpha virt. eigenvalues --    3.88052   3.88577   3.90020   3.93158   3.95613
 Alpha virt. eigenvalues --    3.97493   3.99211   4.02059   4.02744   4.05833
 Alpha virt. eigenvalues --    4.07384   4.09710   4.12196   4.15342   4.18256
 Alpha virt. eigenvalues --    4.21578   4.23807   4.25579   4.27731   4.28016
 Alpha virt. eigenvalues --    4.36775   4.40465   4.41316   4.43384   4.47772
 Alpha virt. eigenvalues --    4.56425   4.58748   4.60112   4.75055   4.79658
 Alpha virt. eigenvalues --    4.87369   5.03126   5.06992   5.07649   5.08610
 Alpha virt. eigenvalues --    5.10485   5.15963   5.16619   5.18962   5.23590
 Alpha virt. eigenvalues --    5.25229   5.38114   5.41496   5.45278   5.49740
 Alpha virt. eigenvalues --    5.56435   5.61316   5.65356   5.81189   5.85599
 Alpha virt. eigenvalues --    5.93783   6.10634   6.11778   6.77002   6.83434
 Alpha virt. eigenvalues --    6.85698   6.85938   6.91664   6.96424   6.97882
 Alpha virt. eigenvalues --    6.99362   7.00130   7.02203   7.06982   7.08009
 Alpha virt. eigenvalues --    7.08182   7.11235   7.14263   7.14968   7.21191
 Alpha virt. eigenvalues --    7.22510   7.30849   7.31797   7.36523   7.36721
 Alpha virt. eigenvalues --    7.37440   7.43113   7.52871   9.89614  23.66893
 Alpha virt. eigenvalues --   23.90431  23.94283  23.96287  23.97789  24.00892
 Alpha virt. eigenvalues --   24.02770  24.05001  24.07693  24.08926  24.14186
 Alpha virt. eigenvalues --   24.18655  24.32325  25.87439  26.28627  27.40671
 Alpha virt. eigenvalues --   35.76824  49.95440  50.00877  50.03394  50.05447
 Alpha virt. eigenvalues --   50.07691 215.89797
          Condensed to atoms (all electrons):
              1          2          3          4          5          6
     1  O    8.473426   0.332380   0.115032  -0.046775   0.014483  -0.003561
     2  C    0.332380  10.656229  -0.317366  -0.596558  -0.157584   0.016163
     3  C    0.115032  -0.317366   8.212071   0.343318   0.057648  -0.094993
     4  C   -0.046775  -0.596558   0.343318   6.299955   0.353831  -0.401489
     5  N    0.014483  -0.157584   0.057648   0.353831   7.236101  -0.279378
     6  C   -0.003561   0.016163  -0.094993  -0.401489  -0.279378   9.342903
     7  C    0.000445   0.070922  -0.099201  -0.150682  -0.061541  -0.676010
     8  O    0.000119  -0.000274   0.002849   0.049526  -0.021600  -0.163899
     9  C    0.014450  -0.034279   0.040553   0.338067  -0.002559  -0.572069
    10  C   -0.003139   0.019023   0.021193  -0.141908  -0.001962   0.093089
    11  O    0.038409  -0.014514   0.001125   0.002616   0.023271   0.015198
    12  O   -0.004413   0.000672  -0.010290   0.002663  -0.010258  -0.058433
    13  C   -0.006480  -0.076778  -0.046496  -0.233639   0.392449  -1.758847
    14  C   -0.001780   0.005793   0.027050  -0.043698   0.007164   0.228997
    15  O   -0.000270  -0.045411  -0.035218   0.224085  -0.066242  -0.162233
    16  C    0.102800   0.464911   0.718437  -0.923644  -0.010332  -0.363473
    17  C   -0.040078  -1.471484  -1.172846   0.309241  -0.030634   0.025321
    18  Cl   0.000942   0.088498   0.094344  -0.042883  -0.000434  -0.001261
    19  C    0.025398   0.158139  -1.600589  -0.434094   0.008010  -0.041021
    20  C   -0.539107  -2.885419  -0.357665   0.491329  -0.026656   0.107421
    21  H    0.193846   0.015635  -0.080182  -0.030637   0.045195   0.003294
    22  H    0.000608   0.006899   0.002476  -0.005258  -0.027765   0.402527
    23  H    0.000186   0.002354  -0.004296  -0.017921   0.014669  -0.101230
    24  H    0.000008  -0.000392   0.000327  -0.006081   0.003447  -0.039852
    25  H    0.000107  -0.002337   0.002566  -0.003637   0.002019  -0.016202
    26  H    0.000061  -0.000067  -0.000256   0.000302   0.001168   0.020922
    27  H    0.000125  -0.001152  -0.002396  -0.003805  -0.001764  -0.000222
    28  H    0.000019  -0.001647   0.000820  -0.026721   0.010552  -0.059788
    29  H    0.000156  -0.001142   0.001808   0.002519  -0.006767   0.036176
    30  H    0.000000   0.000259   0.004201  -0.003882   0.000609  -0.019167
    31  H    0.000003  -0.000760  -0.000044   0.001844   0.000904  -0.039293
    32  H   -0.000513   0.013145  -0.017146  -0.009529  -0.000765   0.003745
    33  H   -0.000784   0.029927  -0.008673  -0.000695   0.000006   0.000085
    34  H    0.002364  -0.237149   0.000306   0.008955   0.000360   0.000470
              7          8          9         10         11         12
     1  O    0.000445   0.000119   0.014450  -0.003139   0.038409  -0.004413
     2  C    0.070922  -0.000274  -0.034279   0.019023  -0.014514   0.000672
     3  C   -0.099201   0.002849   0.040553   0.021193   0.001125  -0.010290
     4  C   -0.150682   0.049526   0.338067  -0.141908   0.002616   0.002663
     5  N   -0.061541  -0.021600  -0.002559  -0.001962   0.023271  -0.010258
     6  C   -0.676010  -0.163899  -0.572069   0.093089   0.015198  -0.058433
     7  C    6.378914   0.293921  -0.572658   0.035932  -0.049904   0.068075
     8  O    0.293921   8.170016  -0.037564   0.018822  -0.000968  -0.002158
     9  C   -0.572658  -0.037564   7.016404  -0.279089  -0.017221  -0.124770
    10  C    0.035932   0.018822  -0.279089   5.064089   0.356289   0.518781
    11  O   -0.049904  -0.000968  -0.017221   0.356289   7.903291  -0.094978
    12  O    0.068075  -0.002158  -0.124770   0.518781  -0.094978   8.180637
    13  C    0.441628  -0.006449  -0.043272   0.018282  -0.002628   0.008909
    14  C   -0.240433  -0.035291  -0.042580  -0.000362   0.000381  -0.001316
    15  O    0.015340  -0.003092   0.000688   0.003449  -0.000026   0.000090
    16  C   -0.064674   0.000519   0.015113   0.019155  -0.004501   0.000795
    17  C   -0.012444   0.000018  -0.000504  -0.002136  -0.000262   0.000404
    18  Cl  -0.000072   0.000000  -0.000048  -0.000012   0.000001   0.000004
    19  C   -0.005998   0.000012   0.001020   0.006559  -0.000770   0.000028
    20  C    0.039117  -0.000245  -0.012487  -0.029787  -0.002109   0.008663
    21  H    0.003487  -0.000122  -0.017162   0.005182  -0.018990   0.001756
    22  H   -0.022462   0.006297  -0.002818   0.002049  -0.000619  -0.000531
    23  H    0.499714  -0.051070  -0.049906   0.002018   0.000079   0.000051
    24  H    0.086189   0.274255  -0.048724   0.004754   0.000033   0.000430
    25  H   -0.035626   0.002443   0.448931  -0.050730  -0.003965   0.004621
    26  H   -0.048444  -0.004158   0.428023  -0.054494   0.003928  -0.005647
    27  H    0.011233   0.000061  -0.020588   0.001576   0.265523   0.012256
    28  H   -0.003270  -0.001498   0.000495   0.000632   0.000002   0.000036
    29  H   -0.019503   0.001066  -0.000918   0.000279  -0.000018  -0.000099
    30  H    0.012296   0.000463   0.002206  -0.000030  -0.000001  -0.000007
    31  H    0.002290   0.002640   0.003779  -0.000118   0.000003   0.000041
    32  H   -0.000290  -0.000002  -0.000059  -0.000021   0.000002   0.000000
    33  H    0.000002   0.000000   0.000001  -0.000006   0.000000   0.000000
    34  H   -0.000001   0.000000  -0.000041  -0.000034   0.000014  -0.000005
             13         14         15         16         17         18
     1  O   -0.006480  -0.001780  -0.000270   0.102800  -0.040078   0.000942
     2  C   -0.076778   0.005793  -0.045411   0.464911  -1.471484   0.088498
     3  C   -0.046496   0.027050  -0.035218   0.718437  -1.172846   0.094344
     4  C   -0.233639  -0.043698   0.224085  -0.923644   0.309241  -0.042883
     5  N    0.392449   0.007164  -0.066242  -0.010332  -0.030634  -0.000434
     6  C   -1.758847   0.228997  -0.162233  -0.363473   0.025321  -0.001261
     7  C    0.441628  -0.240433   0.015340  -0.064674  -0.012444  -0.000072
     8  O   -0.006449  -0.035291  -0.003092   0.000519   0.000018   0.000000
     9  C   -0.043272  -0.042580   0.000688   0.015113  -0.000504  -0.000048
    10  C    0.018282  -0.000362   0.003449   0.019155  -0.002136  -0.000012
    11  O   -0.002628   0.000381  -0.000026  -0.004501  -0.000262   0.000001
    12  O    0.008909  -0.001316   0.000090   0.000795   0.000404   0.000004
    13  C    6.796035  -0.136183   0.316005   0.088532  -0.012021   0.001221
    14  C   -0.136183   5.661712  -0.142025  -0.021362  -0.019758   0.000178
    15  O    0.316005  -0.142025   8.352666  -0.008210   0.057103  -0.000153
    16  C    0.088532  -0.021362  -0.008210   8.832452   0.383546   0.214698
    17  C   -0.012021  -0.019758   0.057103   0.383546   9.282194  -0.757437
    18  Cl   0.001221   0.000178  -0.000153   0.214698  -0.757437  17.101889
    19  C   -0.003542   0.001273  -0.004036  -0.686172  -1.560250   0.366879
    20  C   -0.006840  -0.010211   0.004828  -2.264384   0.032028   0.031061
    21  H    0.005957   0.001338   0.003736  -0.027151   0.008677   0.000000
    22  H   -0.052990   0.016756  -0.001373  -0.003482  -0.000803   0.000000
    23  H    0.034278  -0.011071  -0.002056  -0.001041   0.000169   0.000000
    24  H    0.007984  -0.000782   0.000097   0.000125   0.000012   0.000000
    25  H   -0.001617  -0.001166  -0.000081   0.000284   0.000074   0.000000
    26  H    0.002681   0.000652   0.000034  -0.000002   0.000005   0.000000
    27  H    0.001422  -0.000320  -0.000029  -0.000949   0.000002  -0.000001
    28  H    0.507046  -0.054791  -0.041678   0.004515   0.000948   0.000008
    29  H   -0.061126   0.436125  -0.007684  -0.002055  -0.000899  -0.000011
    30  H   -0.001189   0.383957   0.000540  -0.001948  -0.001212  -0.000002
    31  H   -0.009071   0.405426   0.007835   0.001590   0.000159   0.000000
    32  H    0.001110  -0.000806   0.007342   0.401082  -0.072080  -0.008308
    33  H   -0.000034  -0.000003  -0.000010   0.015469  -0.071389  -0.004156
    34  H   -0.000116   0.000010   0.000000  -0.030598   0.059583  -0.001097
             19         20         21         22         23         24
     1  O    0.025398  -0.539107   0.193846   0.000608   0.000186   0.000008
     2  C    0.158139  -2.885419   0.015635   0.006899   0.002354  -0.000392
     3  C   -1.600589  -0.357665  -0.080182   0.002476  -0.004296   0.000327
     4  C   -0.434094   0.491329  -0.030637  -0.005258  -0.017921  -0.006081
     5  N    0.008010  -0.026656   0.045195  -0.027765   0.014669   0.003447
     6  C   -0.041021   0.107421   0.003294   0.402527  -0.101230  -0.039852
     7  C   -0.005998   0.039117   0.003487  -0.022462   0.499714   0.086189
     8  O    0.000012  -0.000245  -0.000122   0.006297  -0.051070   0.274255
     9  C    0.001020  -0.012487  -0.017162  -0.002818  -0.049906  -0.048724
    10  C    0.006559  -0.029787   0.005182   0.002049   0.002018   0.004754
    11  O   -0.000770  -0.002109  -0.018990  -0.000619   0.000079   0.000033
    12  O    0.000028   0.008663   0.001756  -0.000531   0.000051   0.000430
    13  C   -0.003542  -0.006840   0.005957  -0.052990   0.034278   0.007984
    14  C    0.001273  -0.010211   0.001338   0.016756  -0.011071  -0.000782
    15  O   -0.004036   0.004828   0.003736  -0.001373  -0.002056   0.000097
    16  C   -0.686172  -2.264384  -0.027151  -0.003482  -0.001041   0.000125
    17  C   -1.560250   0.032028   0.008677  -0.000803   0.000169   0.000012
    18  Cl   0.366879   0.031061   0.000000   0.000000   0.000000   0.000000
    19  C   10.405013  -0.345894  -0.007072   0.000218  -0.000017  -0.000001
    20  C   -0.345894  11.258937   0.111704   0.000661   0.000766  -0.000019
    21  H   -0.007072   0.111704   0.286350  -0.001031   0.000138  -0.000006
    22  H    0.000218   0.000661  -0.001031   0.568612   0.006099  -0.000136
    23  H   -0.000017   0.000766   0.000138   0.006099   0.551270  -0.005408
    24  H   -0.000001  -0.000019  -0.000006  -0.000136  -0.005408   0.403077
    25  H   -0.000045  -0.000257  -0.000069   0.003249   0.005813   0.000205
    26  H   -0.000001   0.000049  -0.000004  -0.000637  -0.004443   0.004672
    27  H   -0.000265   0.003479  -0.000926  -0.000032   0.000073   0.000001
    28  H    0.000016  -0.000262  -0.000008  -0.010982  -0.000490   0.000111
    29  H   -0.000093  -0.000709  -0.000113  -0.000192  -0.001891   0.000192
    30  H   -0.000041  -0.000098  -0.000001   0.000010   0.000213   0.000020
    31  H    0.000003  -0.000076  -0.000005  -0.000154  -0.001341  -0.000299
    32  H    0.018807  -0.000568   0.000025  -0.000015   0.000000   0.000000
    33  H    0.418870  -0.041864   0.000016   0.000000   0.000000   0.000000
    34  H   -0.097384   0.645480   0.000777   0.000000   0.000000   0.000000
             25         26         27         28         29         30
     1  O    0.000107   0.000061   0.000125   0.000019   0.000156   0.000000
     2  C   -0.002337  -0.000067  -0.001152  -0.001647  -0.001142   0.000259
     3  C    0.002566  -0.000256  -0.002396   0.000820   0.001808   0.004201
     4  C   -0.003637   0.000302  -0.003805  -0.026721   0.002519  -0.003882
     5  N    0.002019   0.001168  -0.001764   0.010552  -0.006767   0.000609
     6  C   -0.016202   0.020922  -0.000222  -0.059788   0.036176  -0.019167
     7  C   -0.035626  -0.048444   0.011233  -0.003270  -0.019503   0.012296
     8  O    0.002443  -0.004158   0.000061  -0.001498   0.001066   0.000463
     9  C    0.448931   0.428023  -0.020588   0.000495  -0.000918   0.002206
    10  C   -0.050730  -0.054494   0.001576   0.000632   0.000279  -0.000030
    11  O   -0.003965   0.003928   0.265523   0.000002  -0.000018  -0.000001
    12  O    0.004621  -0.005647   0.012256   0.000036  -0.000099  -0.000007
    13  C   -0.001617   0.002681   0.001422   0.507046  -0.061126  -0.001189
    14  C   -0.001166   0.000652  -0.000320  -0.054791   0.436125   0.383957
    15  O   -0.000081   0.000034  -0.000029  -0.041678  -0.007684   0.000540
    16  C    0.000284  -0.000002  -0.000949   0.004515  -0.002055  -0.001948
    17  C    0.000074   0.000005   0.000002   0.000948  -0.000899  -0.001212
    18  Cl   0.000000   0.000000  -0.000001   0.000008  -0.000011  -0.000002
    19  C   -0.000045  -0.000001  -0.000265   0.000016  -0.000093  -0.000041
    20  C   -0.000257   0.000049   0.003479  -0.000262  -0.000709  -0.000098
    21  H   -0.000069  -0.000004  -0.000926  -0.000008  -0.000113  -0.000001
    22  H    0.003249  -0.000637  -0.000032  -0.010982  -0.000192   0.000010
    23  H    0.005813  -0.004443   0.000073  -0.000490  -0.001891   0.000213
    24  H    0.000205   0.004672   0.000001   0.000111   0.000192   0.000020
    25  H    0.513558  -0.032414   0.001083  -0.000003  -0.000004   0.000004
    26  H   -0.032414   0.510907  -0.000479   0.000011   0.000006  -0.000003
    27  H    0.001083  -0.000479   0.382514   0.000000   0.000001   0.000000
    28  H   -0.000003   0.000011   0.000000   0.544857   0.005567  -0.007014
    29  H   -0.000004   0.000006   0.000001   0.005567   0.514552  -0.027216
    30  H    0.000004  -0.000003   0.000000  -0.007014  -0.027216   0.528632
    31  H   -0.000002  -0.000013   0.000000  -0.002421  -0.027126  -0.022363
    32  H    0.000000   0.000000   0.000000   0.000013   0.000008  -0.000001
    33  H    0.000000   0.000000   0.000000   0.000000   0.000000   0.000000
    34  H    0.000000   0.000000  -0.000001   0.000000   0.000000   0.000000
             31         32         33         34
     1  O    0.000003  -0.000513  -0.000784   0.002364
     2  C   -0.000760   0.013145   0.029927  -0.237149
     3  C   -0.000044  -0.017146  -0.008673   0.000306
     4  C    0.001844  -0.009529  -0.000695   0.008955
     5  N    0.000904  -0.000765   0.000006   0.000360
     6  C   -0.039293   0.003745   0.000085   0.000470
     7  C    0.002290  -0.000290   0.000002  -0.000001
     8  O    0.002640  -0.000002   0.000000   0.000000
     9  C    0.003779  -0.000059   0.000001  -0.000041
    10  C   -0.000118  -0.000021  -0.000006  -0.000034
    11  O    0.000003   0.000002   0.000000   0.000014
    12  O    0.000041   0.000000   0.000000  -0.000005
    13  C   -0.009071   0.001110  -0.000034  -0.000116
    14  C    0.405426  -0.000806  -0.000003   0.000010
    15  O    0.007835   0.007342  -0.000010   0.000000
    16  C    0.001590   0.401082   0.015469  -0.030598
    17  C    0.000159  -0.072080  -0.071389   0.059583
    18  Cl   0.000000  -0.008308  -0.004156  -0.001097
    19  C    0.000003   0.018807   0.418870  -0.097384
    20  C   -0.000076  -0.000568  -0.041864   0.645480
    21  H   -0.000005   0.000025   0.000016   0.000777
    22  H   -0.000154  -0.000015   0.000000   0.000000
    23  H   -0.001341   0.000000   0.000000   0.000000
    24  H   -0.000299   0.000000   0.000000   0.000000
    25  H   -0.000002   0.000000   0.000000   0.000000
    26  H   -0.000013   0.000000   0.000000   0.000000
    27  H    0.000000   0.000000   0.000000  -0.000001
    28  H   -0.002421   0.000013   0.000000   0.000000
    29  H   -0.027126   0.000008   0.000000   0.000000
    30  H   -0.022363  -0.000001   0.000000   0.000000
    31  H    0.515282  -0.000008   0.000000   0.000000
    32  H   -0.000008   0.498279  -0.000113   0.000050
    33  H    0.000000  -0.000113   0.517421  -0.004782
    34  H    0.000000   0.000050  -0.004782   0.518679
 Mulliken atomic charges:
              1
     1  O   -0.668467
     2  C   -0.036633
     3  C    0.201532
     4  C    0.695287
     5  N   -0.465645
     6  C    0.556112
     7  C    0.103706
     8  O   -0.494635
     9  C   -0.430414
    10  C    0.372678
    11  O   -0.398689
    12  O   -0.496007
    13  C   -0.164220
    14  C   -0.412872
    15  O   -0.474012
    16  C   -0.850044
    17  C    1.066757
    18  Cl  -0.083846
    19  C   -0.622961
    20  C   -0.210864
    21  H    0.496367
    22  H    0.114819
    23  H    0.134292
    24  H    0.315759
    25  H    0.163198
    26  H    0.177641
    27  H    0.353581
    28  H    0.134923
    29  H    0.159113
    30  H    0.150766
    31  H    0.161293
    32  H    0.166616
    33  H    0.150713
    34  H    0.134159
 Sum of Mulliken atomic charges =   0.00000
 Mulliken charges with hydrogens summed into heavy atoms:
              1
     1  O   -0.172100
     2  C   -0.036633
     3  C    0.201532
     4  C    0.695287
     5  N   -0.465645
     6  C    0.670930
     7  C    0.237999
     8  O   -0.178876
     9  C   -0.089575
    10  C    0.372678
    11  O   -0.045109
    12  O   -0.496007
    13  C   -0.029297
    14  C    0.058298
    15  O   -0.474012
    16  C   -0.683427
    17  C    1.066757
    18  Cl  -0.083846
    19  C   -0.472248
    20  C   -0.076706
 Sum of Mulliken charges with hydrogens summed into heavy atoms =   0.00000
 Electronic spatial extent (au):  <R**2>=           7099.3377
 Charge=              0.0000 electrons
 Dipole moment (field-independent basis, Debye):
    X=              4.1699    Y=             -1.1738    Z=             -0.6732  Tot=              4.3840
 Quadrupole moment (field-independent basis, Debye-Ang):
   XX=           -114.1231   YY=           -116.3449   ZZ=           -131.5672
   XY=            -10.7976   XZ=              0.4033   YZ=             -3.4371
 Traceless Quadrupole moment (field-independent basis, Debye-Ang):
   XX=              6.5553   YY=              4.3335   ZZ=            -10.8888
   XY=            -10.7976   XZ=              0.4033   YZ=             -3.4371
 Octapole moment (field-independent basis, Debye-Ang**2):
  XXX=            168.0861  YYY=             22.6479  ZZZ=            -14.7978  XYY=              5.0760
  XXY=             27.3996  XXZ=             15.8189  XZZ=              1.4066  YZZ=            -16.9036
  YYZ=              9.4223  XYZ=            -19.0362
 Hexadecapole moment (field-independent basis, Debye-Ang**3):
 XXXX=          -6362.5862 YYYY=          -1928.4108 ZZZZ=           -418.0391 XXXY=           -183.1308
 XXXZ=            125.2857 YYYX=             27.0447 YYYZ=             29.8844 ZZZX=            -40.6364
 ZZZY=            -13.3889 XXYY=          -1408.3687 XXZZ=          -1276.4289 YYZZ=           -451.1495
 XXYZ=            -72.8837 YYXZ=             18.9480 ZZXY=            -22.0347
 N-N= 1.726450189541D+03 E-N=-6.733235327233D+03  KE= 1.390567159607D+03
 1\1\GINC-PROD2-0176\SP\RB3LYP\6-311+G(2d,p)\C13H14Cl1N1O5\YUHENG\26-Ma
 r-2019\0\\# b3lyp/6-311+G(2d,p) nmr guess=read geom=check integral(ult
 rafinegrid) scrf=(iefpcm,read,solvent=methanol)\\Candidate Structure: 
 1b, Conformer: 18, NMR calculation with methanol solvation\\0,1\O,0,-0
 .403911457,2.2534888477,-0.4099910657\C,0,-1.4944877939,1.4835262658,-
 0.2560435959\C,0,-1.435483199,0.0755349374,-0.2287033476\C,0,-0.141947
 4963,-0.5895481765,-0.378296926\N,0,0.9777943067,0.0236365999,-0.50170
 45911\C,0,2.0074264272,-0.9989463862,-0.7168971201\C,0,3.2819285792,-0
 .6903667907,0.0623113543\O,0,4.2125229012,-1.6776299384,-0.3414531971\
 C,0,3.7868128174,0.7230851006,-0.2576334034\C,0,2.998445866,1.77584516
 98,0.4823220092\O,0,2.6001282699,2.7836059173,-0.3027344366\O,0,2.7821
 292848,1.749810858,1.6750367929\C,0,1.2881764456,-2.3235657324,-0.3561
 975756\C,0,1.5594324504,-2.8821187796,1.0268198087\O,0,-0.1198640838,-
 1.9331596759,-0.4169206198\C,0,-2.6067900837,-0.6756647866,-0.06242551
 \C,0,-3.8187594858,-0.024893005,0.0758194084\Cl,0,-5.2830827347,-0.959
 2367281,0.283381904\C,0,-3.8920532457,1.3699080007,0.0528212234\C,0,-2
 .7357156482,2.1157589001,-0.1123968182\H,0,0.3914751975,1.6723452569,-
 0.5164555546\H,0,2.2818881398,-0.9959220947,-1.7825896461\H,0,3.092300
 828,-0.7518275422,1.1416553093\H,0,4.9793870033,-1.6656078651,0.256601
 7169\H,0,3.7716413776,0.9142395018,-1.333962123\H,0,4.8229825404,0.807
 60961,0.091324412\H,0,2.1439573244,3.4550141334,0.2491607271\H,0,1.432
 5600346,-3.0852815926,-1.1243978092\H,0,1.3342212349,-2.1390432066,1.7
 985778034\H,0,0.9328283265,-3.7605329869,1.1968675725\H,0,2.608899504,
 -3.1762981942,1.1110232919\H,0,-2.5502509313,-1.7598610664,-0.04312995
 53\H,0,-4.8526162191,1.8655207979,0.1633296593\H,0,-2.7713811384,3.200
 9570533,-0.1340624683\\Version=EM64L-G09RevB.01\State=1-A\HF=-1395.255
 9788\RMSD=4.118e-09\Dipole=1.6405629,-0.4618,-0.2648767\Quadrupole=4.8
 737235,3.2218455,-8.095569,-8.0277165,0.2998321,-2.5553866\PG=C01 [X(C
 13H14Cl1N1O5)]\\@


 I WOULD TAKE COUNSEL OF MYSELF.
 I WOULD STOP AND LOOK WITHIN
 AND LOOKING WITHIN, LOOK BACK, ALSO
 THAT I MAY LOOK AHEAD WITH CLEARER UNDERSTANDING
 OF THE WAY I HAVE BEEN MOVING, AND IN WHAT DIRECTION.
 I NEED TO KNOW IF I AM GOING FORWARD OR RETREATING,
 WHETHER I HAVE BEEN WASTING, OR ENJOYING
 THE PRECIOUS MOMENTS OF LIFE.  THERE HAVE BEEN FRICTIONS,
 ANNOYANCES AND SOMETIMES WRATH,
 BUT WERE THEY BECAUSE I WAS RIGHT AND OTHERS WRONG.....
 HAVE I HAD MY THOUGHTS TOO SHARPLY FOCUSED
 ON THAT WHICH PLEASED ME, SERVED MY SELF-ESTEEM,
 UNDERGIRDED MY SECURITY,
 OF WHICH I DID NOT INQUIRE WHETHER IT SERVED OR HAMPERED OTHERS.....
 HAVE I BEEN TRYING TO STOP THE CLOCK
 TO HOLD THE WORLD
 IN PERPETUATION OF WHAT WAS AN IS ALREADY SLIPPING AWAY.....
 HAVE I BEEN CRITICAL OF OTHERS FOR WHAT REALLY NEEDED CHANGING IN ME...
 LET ME INDEED TAKE COUNSEL OF MYSELF
 AND SET MY DIRECTIONS STRAIGHT.

                          R.T. WESTON AS ADAPTED BY D. OSBORN 1967
 Job cpu time:  0 days  2 hours 43 minutes 58.6 seconds.
 File lengths (MBytes):  RWF=    330 Int=      0 D2E=      0 Chk=     32 Scr=      1
 Normal termination of Gaussian 09 at Tue Mar 26 03:00:01 2019.
