 Entering Gaussian System, Link 0=g09
 Initial command:
 /home/yuheng/proj/yuheng/g09/l1.exe /home/yuheng/proj/yuheng/g09_scratch/Gau-28545.inp -scrdir=/home/yuheng/proj/yuheng/g09_scratch/
 Entering Link 1 = /home/yuheng/proj/yuheng/g09/l1.exe PID=     28546.
  
 Copyright (c) 1988,1990,1992,1993,1995,1998,2003,2009,2010,
            Gaussian, Inc.  All Rights Reserved.
  
 This is part of the Gaussian(R) 09 program.  It is based on
 the Gaussian(R) 03 system (copyright 2003, Gaussian, Inc.),
 the Gaussian(R) 98 system (copyright 1998, Gaussian, Inc.),
 the Gaussian(R) 94 system (copyright 1995, Gaussian, Inc.),
 the Gaussian 92(TM) system (copyright 1992, Gaussian, Inc.),
 the Gaussian 90(TM) system (copyright 1990, Gaussian, Inc.),
 the Gaussian 88(TM) system (copyright 1988, Gaussian, Inc.),
 the Gaussian 86(TM) system (copyright 1986, Carnegie Mellon
 University), and the Gaussian 82(TM) system (copyright 1983,
 Carnegie Mellon University). Gaussian is a federally registered
 trademark of Gaussian, Inc.
  
 This software contains proprietary and confidential information,
 including trade secrets, belonging to Gaussian, Inc.
  
 This software is provided under written license and may be
 used, copied, transmitted, or stored only in accord with that
 written license.
  
 The following legend is applicable only to US Government
 contracts under FAR:
  
                    RESTRICTED RIGHTS LEGEND
  
 Use, reproduction and disclosure by the US Government is
 subject to restrictions as set forth in subparagraphs (a)
 and (c) of the Commercial Computer Software - Restricted
 Rights clause in FAR 52.227-19.
  
 Gaussian, Inc.
 340 Quinnipiac St., Bldg. 40, Wallingford CT 06492
  
  
 ---------------------------------------------------------------
 Warning -- This program may not be used in any manner that
 competes with the business of Gaussian, Inc. or will provide
 assistance to any competitor of Gaussian, Inc.  The licensee
 of this program is prohibited from giving any competitor of
 Gaussian, Inc. access to this program.  By using this program,
 the user acknowledges that Gaussian, Inc. is engaged in the
 business of creating and licensing software in the field of
 computational chemistry and represents and warrants to the
 licensee that it is not a competitor of Gaussian, Inc. and that
 it will not use this program in any manner prohibited above.
 ---------------------------------------------------------------
  

 Cite this work as:
 Gaussian 09, Revision B.01,
 M. J. Frisch, G. W. Trucks, H. B. Schlegel, G. E. Scuseria, 
 M. A. Robb, J. R. Cheeseman, G. Scalmani, V. Barone, B. Mennucci, 
 G. A. Petersson, H. Nakatsuji, M. Caricato, X. Li, H. P. Hratchian, 
 A. F. Izmaylov, J. Bloino, G. Zheng, J. L. Sonnenberg, M. Hada, 
 M. Ehara, K. Toyota, R. Fukuda, J. Hasegawa, M. Ishida, T. Nakajima, 
 Y. Honda, O. Kitao, H. Nakai, T. Vreven, J. A. Montgomery, Jr., 
 J. E. Peralta, F. Ogliaro, M. Bearpark, J. J. Heyd, E. Brothers, 
 K. N. Kudin, V. N. Staroverov, T. Keith, R. Kobayashi, J. Normand, 
 K. Raghavachari, A. Rendell, J. C. Burant, S. S. Iyengar, J. Tomasi, 
 M. Cossi, N. Rega, J. M. Millam, M. Klene, J. E. Knox, J. B. Cross, 
 V. Bakken, C. Adamo, J. Jaramillo, R. Gomperts, R. E. Stratmann, 
 O. Yazyev, A. J. Austin, R. Cammi, C. Pomelli, J. W. Ochterski, 
 R. L. Martin, K. Morokuma, V. G. Zakrzewski, G. A. Voth, 
 P. Salvador, J. J. Dannenberg, S. Dapprich, A. D. Daniels, 
 O. Farkas, J. B. Foresman, J. V. Ortiz, J. Cioslowski, 
 and D. J. Fox, Gaussian, Inc., Wallingford CT, 2010.
 
 ******************************************
 Gaussian 09:  EM64L-G09RevB.01 12-Aug-2010
                26-Mar-2019 
 ******************************************
 %mem=16gb
 %nprocshared=20
 Will use up to   20 processors via shared memory.
 %chk=1b-conf-7.chk
 ----------------------------------------------------------------------
 # b3lyp/6-311+G(2d,p) nmr guess=read geom=check integral(ultrafinegrid
 ) scrf=(iefpcm,read,solvent=methanol)
 ----------------------------------------------------------------------
 1/29=2,38=1,40=2/1;
 2/12=2,40=1/2;
 3/5=4,6=6,7=112,11=2,14=-4,16=1,25=1,30=1,70=2203,72=3,74=-5,75=-5,116=-2/1,2,8,3;
 4/5=1/1;
 5/5=2,38=6,53=3/2;
 8/6=1,10=90,11=11/1;
 10/13=100,45=16/2;
 6/7=2,8=2,9=2,10=2,28=1/1;
 99/9=1/99;
 ----------------------------------------------------------------------
 Candidate Structure: 1b, Conformer: 7, NMR calculation with methanol s
 olvation
 ----------------------------------------------------------------------
 Redundant internal coordinates taken from checkpoint file:
 1b-conf-7.chk
 Charge =  0 Multiplicity = 1
 O,0,0.6722024889,-2.356463362,0.5776788672
 C,0,1.7621789884,-1.6080843312,0.3447894624
 C,0,1.6889084748,-0.2452537214,-0.0114546364
 C,0,0.3799002584,0.392582577,-0.1454846582
 N,0,-0.7392546268,-0.1977885123,0.067680326
 C,0,-1.795537702,0.7640554393,-0.2706357949
 C,0,-2.9589057322,0.7157101299,0.72249704
 O,0,-3.9312676807,1.686617051,0.3796781485
 C,0,-3.558841976,-0.6852663877,0.8534481752
 C,0,-4.1864180989,-1.1951302668,-0.4187240103
 O,0,-4.3841380054,-2.512480261,-0.3974191634
 O,0,-4.5082495324,-0.4960091533,-1.3609354643
 C,0,-1.0424094002,2.1167531728,-0.3379781516
 C,0,-1.0890100013,2.9793539433,0.9092277391
 O,0,0.3392030305,1.6808045349,-0.5302262032
 C,0,2.8612466731,0.4873742799,-0.2400293894
 C,0,4.0887839944,-0.1365464785,-0.1147706308
 Cl,0,5.554608672,0.7753622497,-0.3978482878
 C,0,4.1768752724,-1.4860153099,0.2364448691
 C,0,3.0194654166,-2.2139760178,0.4639343672
 H,0,-0.1347521567,-1.7925049369,0.4497366629
 H,0,-2.1835974212,0.5081831273,-1.2667180639
 H,0,-2.5871352986,0.9973276006,1.7133634092
 H,0,-4.3417274175,1.4178128109,-0.459656719
 H,0,-4.35185477,-0.665507904,1.6111940008
 H,0,-2.8054845923,-1.4010956641,1.1927176895
 H,0,-4.830544218,-2.7853157525,-1.2275180498
 H,0,-1.3152990049,2.6898649793,-1.2255751146
 H,0,-0.7412103607,2.4188720748,1.7829263303
 H,0,-0.4410473257,3.8485115689,0.7762355283
 H,0,-2.1108000339,3.321821513,1.0893658752
 H,0,2.7938781203,1.5362692311,-0.5125765172
 H,0,5.1495735282,-1.960357876,0.3304302879
 H,0,3.0670165022,-3.2636120815,0.7379375249
 Recover connectivity data from disk.
                          Input orientation:                          
 ---------------------------------------------------------------------
 Center     Atomic      Atomic             Coordinates (Angstroms)
 Number     Number       Type             X           Y           Z
 ---------------------------------------------------------------------
      1          8           0        0.672202   -2.356463    0.577679
      2          6           0        1.762179   -1.608084    0.344789
      3          6           0        1.688908   -0.245254   -0.011455
      4          6           0        0.379900    0.392583   -0.145485
      5          7           0       -0.739255   -0.197789    0.067680
      6          6           0       -1.795538    0.764055   -0.270636
      7          6           0       -2.958906    0.715710    0.722497
      8          8           0       -3.931268    1.686617    0.379678
      9          6           0       -3.558842   -0.685266    0.853448
     10          6           0       -4.186418   -1.195130   -0.418724
     11          8           0       -4.384138   -2.512480   -0.397419
     12          8           0       -4.508250   -0.496009   -1.360935
     13          6           0       -1.042409    2.116753   -0.337978
     14          6           0       -1.089010    2.979354    0.909228
     15          8           0        0.339203    1.680805   -0.530226
     16          6           0        2.861247    0.487374   -0.240029
     17          6           0        4.088784   -0.136546   -0.114771
     18         17           0        5.554609    0.775362   -0.397848
     19          6           0        4.176875   -1.486015    0.236445
     20          6           0        3.019465   -2.213976    0.463934
     21          1           0       -0.134752   -1.792505    0.449737
     22          1           0       -2.183597    0.508183   -1.266718
     23          1           0       -2.587135    0.997328    1.713363
     24          1           0       -4.341727    1.417813   -0.459657
     25          1           0       -4.351855   -0.665508    1.611194
     26          1           0       -2.805485   -1.401096    1.192718
     27          1           0       -4.830544   -2.785316   -1.227518
     28          1           0       -1.315299    2.689865   -1.225575
     29          1           0       -0.741210    2.418872    1.782926
     30          1           0       -0.441047    3.848512    0.776236
     31          1           0       -2.110800    3.321822    1.089366
     32          1           0        2.793878    1.536269   -0.512577
     33          1           0        5.149574   -1.960358    0.330430
     34          1           0        3.067017   -3.263612    0.737938
 ---------------------------------------------------------------------
                    Distance matrix (angstroms):
                    1          2          3          4          5
     1  O    0.000000
     2  C    1.342519   0.000000
     3  C    2.416190   1.410527   0.000000
     4  C    2.857562   2.480672   1.462293   0.000000
     5  N    2.629104   2.884943   2.429916   1.283154   0.000000
     6  C    4.067802   4.320086   3.636928   2.210472   1.468106
     7  C    4.758589   5.275540   4.802532   3.464885   2.487994
     8  O    6.130060   6.578116   5.955795   4.531720   3.719849
     9  C    4.557487   5.424352   5.336717   4.203964   2.967345
    10  C    5.093889   6.011596   5.965534   4.842185   3.621356
    11  O    5.151867   6.256678   6.493934   5.585599   4.342728
    12  O    5.835803   6.592760   6.347342   5.114775   4.041683
    13  C    4.877293   4.712356   3.625713   2.243386   2.369296
    14  C    5.628742   5.430696   4.354605   3.156185   3.305263
    15  O    4.199747   3.688808   2.408429   1.345064   2.247148
    16  C    3.680757   2.437398   1.401202   2.484956   3.678008
    17  C    4.132862   2.791005   2.404557   3.746564   4.831873
    18  Cl   5.881996   4.540358   4.016789   5.194980   6.385644
    19  C    3.627237   2.420206   2.791222   4.253471   5.084913
    20  C    2.354333   1.400739   2.423271   3.759367   4.283691
    21  H    0.992771   1.908762   2.435656   2.322448   1.747716
    22  H    4.445626   4.758644   4.140007   2.800366   2.089292
    23  H    4.812585   5.251447   4.775307   3.553074   2.747952
    24  H    6.360874   6.860092   6.271782   4.841856   3.983223
    25  H    5.400799   6.314558   6.269005   5.157032   3.956270
    26  H    3.658594   4.650309   4.794327   3.892909   2.642530
    27  H    5.807140   6.879101   7.101689   6.198271   5.011136
    28  H    5.715533   5.514461   4.371987   3.052508   3.216035
    29  H    5.123884   4.954954   4.027760   3.013554   3.128735
    30  H    6.307176   5.900406   4.681461   3.669737   4.118680
    31  H    6.344277   6.313346   5.326689   4.038426   3.913136
    32  H    4.565472   3.418543   2.155436   2.696306   3.978276
    33  H    4.501653   3.405693   3.877457   5.339720   6.152559
    34  H    2.565879   2.144280   3.401655   4.622639   4.933175
                    6          7          8          9         10
     6  C    0.000000
     7  C    1.530384   0.000000
     8  O    2.415651   1.416218   0.000000
     9  C    2.544276   1.529643   2.447241   0.000000
    10  C    3.094616   2.541748   3.001169   1.507393   0.000000
    11  O    4.177632   3.702258   4.294344   2.363153   1.332276
    12  O    3.183602   2.865209   2.850702   2.416752   1.216597
    13  C    1.549687   2.600094   3.007582   3.950094   4.567262
    14  C    2.607452   2.942017   3.167021   4.419573   5.365045
    15  O    2.337720   3.657628   4.366335   4.765249   5.363271
    16  C    4.665097   5.903623   6.925350   6.617274   7.247919
    17  C    5.954882   7.148237   8.239517   7.728177   8.348171
    18  Cl   7.351256   8.587122   9.561212   9.314191   9.938354
    19  C    6.402317   7.483529   8.707933   7.801488   8.393958
    20  C    5.708986   6.662645   7.970848   6.764821   7.330886
    21  H    3.132594   3.787002   5.150022   3.621236   4.186535
    22  H    1.099200   2.145028   2.674636   2.794767   2.762546
    23  H    2.148789   1.095143   2.015075   2.124804   3.451141
    24  H    2.635566   1.950034   0.972222   2.600018   2.617875
    25  H    3.481335   2.153567   2.688125   1.097013   2.104385
    26  H    2.801656   2.173824   3.385615   1.093189   2.132169
    27  H    4.767067   4.422982   4.836317   3.218362   1.896770
    28  H    2.202562   3.223929   3.229030   4.554924   4.897706
    29  H    2.840271   2.990559   3.561147   4.294025   5.456898
    30  H    3.527670   4.019570   4.124643   5.502885   6.394846
    31  H    2.913960   2.765085   2.547872   4.267228   5.194745
    32  H    4.660213   5.940812   6.785743   6.867190   7.496258
    33  H    7.484536   8.547660   9.785935   8.816797   9.397209
    34  H    6.394041   7.221287   8.579575   7.110781   7.630780
                   11         12         13         14         15
    11  O    0.000000
    12  O    2.238286   0.000000
    13  C    5.709683   4.459262   0.000000
    14  C    6.536470   5.378010   1.517160   0.000000
    15  O    6.317533   5.378326   1.461459   2.407914   0.000000
    16  C    7.843437   7.518840   4.231194   4.809915   2.805208
    17  C    8.804281   8.694316   5.608594   6.129189   4.187449
    18  Cl  10.468457  10.188476   6.732278   7.120653   5.295074
    19  C    8.645598   8.886120   6.367954   6.936981   5.034308
    20  C    7.459516   7.933981   5.991419   6.636907   4.831302
    21  H    4.392416   4.907842   4.089821   4.887983   3.639896
    22  H    3.836987   2.534026   2.179992   3.469805   2.877844
    23  H    4.472513   3.920720   2.801302   2.611406   3.750239
    24  H    3.931015   2.121968   3.374733   3.859071   4.688844
    25  H    2.728896   2.981064   4.742645   4.942057   5.665411
    26  H    2.501171   3.199959   4.222171   4.713278   4.728182
    27  H    0.981214   2.315729   6.258716   7.196956   6.867222
    28  H    6.096557   4.512544   1.091217   2.166193   2.058905
    29  H    6.507155   5.707099   2.163385   1.094739   2.657576
    30  H    7.575463   6.323329   2.145250   1.092235   2.648506
    31  H    6.435656   5.131040   2.151966   1.092606   3.364302
    32  H    8.241938   7.626987   3.883883   4.379594   2.458990
    33  H    9.577383   9.913555   7.443807   7.978451   6.094133
    34  H    7.574493   8.333640   6.855166   7.501768   5.787613
                   16         17         18         19         20
    16  C    0.000000
    17  C    1.382684   0.000000
    18  Cl   2.713308   1.749386   0.000000
    19  C    2.419126   1.397204   2.722922   0.000000
    20  C    2.796049   2.407084   4.013199   1.386101   0.000000
    21  H    3.827484   4.571556   6.299299   4.327766   3.182283
    22  H    5.148298   6.409792   7.791415   6.833150   6.121860
    23  H    5.810393   7.013961   8.413945   7.355278   6.580845
    24  H    7.266140   8.579540   9.917360   9.026814   8.260150
    25  H    7.535582   8.631520  10.210307   8.677696   7.619076
    26  H    6.142550   7.130186   8.783964   7.048051   5.926377
    27  H    8.417201   9.370624  11.009913   9.217645   8.050472
    28  H    4.823463   6.198919   7.179560   7.052621   6.759607
    29  H    4.560782   5.784485   6.862524   6.467404   6.111113
    30  H    4.820289   6.098684   6.838904   7.076282   6.987592
    31  H    5.875596   7.200354   8.213084   7.961007   7.573364
    32  H    1.085818   2.152520   2.865968   3.407039   3.881856
    33  H    3.399008   2.156332   2.859827   1.086267   2.149304
    34  H    3.881837   3.398479   4.877647   2.154793   1.085852
                   21         22         23         24         25
    21  H    0.000000
    22  H    3.526634   0.000000
    23  H    3.923532   3.046800   0.000000
    24  H    5.369523   2.477155   2.824432   0.000000
    25  H    4.516975   3.789626   2.426869   2.937473   0.000000
    26  H    2.799649   3.175045   2.463977   3.610627   1.762802
    27  H    5.084223   4.225518   5.290563   4.300563   3.575055
    28  H    4.928692   2.348483   3.622100   3.371056   5.341016
    29  H    4.458798   3.877053   2.330894   4.358328   4.751804
    30  H    5.658753   4.285783   3.689601   4.759310   6.030584
    31  H    5.519984   3.670557   2.453475   3.316890   4.603632
    32  H    4.536922   5.138186   5.848126   7.136785   7.773012
    33  H    5.288337   7.900631   8.397444  10.105497   9.674406
    34  H    3.535327   6.768606   7.146782   8.845307   7.909006
                   26         27         28         29         30
    26  H    0.000000
    27  H    3.445936   0.000000
    28  H    4.980437   6.506501   0.000000
    29  H    4.381978   7.271107   3.074751   0.000000
    30  H    5.772556   8.203071   2.472655   1.774089   0.000000
    31  H    4.774852   7.075457   2.528071   1.781045   1.778631
    32  H    6.548970   8.793125   4.327180   4.306411   4.179981
    33  H    8.021176  10.134619   8.114204   7.482562   8.074450
    34  H    6.177545   8.152500   7.648788   6.919915   7.930339
                   31         32         33         34
    31  H    0.000000
    32  H    5.459880   0.000000
    33  H    9.010573   4.299577   0.000000
    34  H    8.384582   4.967620   2.490297   0.000000
 Stoichiometry    C13H14ClNO5
 Framework group  C1[X(C13H14ClNO5)]
 Deg. of freedom    96
 Full point group                 C1      NOp   1
 Largest Abelian subgroup         C1      NOp   1
 Largest concise Abelian subgroup C1      NOp   1
                         Standard orientation:                         
 ---------------------------------------------------------------------
 Center     Atomic      Atomic             Coordinates (Angstroms)
 Number     Number       Type             X           Y           Z
 ---------------------------------------------------------------------
      1          8           0        0.672202   -2.356463    0.577679
      2          6           0        1.762179   -1.608084    0.344789
      3          6           0        1.688908   -0.245254   -0.011455
      4          6           0        0.379900    0.392583   -0.145485
      5          7           0       -0.739255   -0.197789    0.067680
      6          6           0       -1.795538    0.764055   -0.270636
      7          6           0       -2.958906    0.715710    0.722497
      8          8           0       -3.931268    1.686617    0.379678
      9          6           0       -3.558842   -0.685266    0.853448
     10          6           0       -4.186418   -1.195130   -0.418724
     11          8           0       -4.384138   -2.512480   -0.397419
     12          8           0       -4.508250   -0.496009   -1.360935
     13          6           0       -1.042409    2.116753   -0.337978
     14          6           0       -1.089010    2.979354    0.909228
     15          8           0        0.339203    1.680805   -0.530226
     16          6           0        2.861247    0.487374   -0.240029
     17          6           0        4.088784   -0.136546   -0.114771
     18         17           0        5.554609    0.775362   -0.397848
     19          6           0        4.176875   -1.486015    0.236445
     20          6           0        3.019465   -2.213976    0.463934
     21          1           0       -0.134752   -1.792505    0.449737
     22          1           0       -2.183597    0.508183   -1.266718
     23          1           0       -2.587135    0.997328    1.713363
     24          1           0       -4.341727    1.417813   -0.459657
     25          1           0       -4.351855   -0.665508    1.611194
     26          1           0       -2.805485   -1.401096    1.192718
     27          1           0       -4.830544   -2.785316   -1.227518
     28          1           0       -1.315299    2.689865   -1.225575
     29          1           0       -0.741210    2.418872    1.782926
     30          1           0       -0.441047    3.848512    0.776236
     31          1           0       -2.110800    3.321822    1.089366
     32          1           0        2.793878    1.536269   -0.512577
     33          1           0        5.149574   -1.960358    0.330430
     34          1           0        3.067017   -3.263612    0.737938
 ---------------------------------------------------------------------
 Rotational constants (GHZ):      0.6318956      0.1471967      0.1254827
 Standard basis: 6-311+G(2d,p) (5D, 7F)
 There are   632 symmetry adapted basis functions of A   symmetry.
 Integral buffers will be    131072 words long.
 Raffenetti 2 integral format.
 Two-electron integral symmetry is turned on.
   632 basis functions,   969 primitive gaussians,   672 cartesian basis functions
    78 alpha electrons       78 beta electrons
       nuclear repulsion energy      1688.3058658168 Hartrees.
 NAtoms=   34 NActive=   34 NUniq=   34 SFac= 1.00D+00 NAtFMM=   50 NAOKFM=F Big=F
 Using the following non-standard input for PCM:
 radii=bondi
 --- end of non-standard input.
 ------------------------------------------------------------------------------
 Polarizable Continuum Model (PCM)
 =================================
 Model                : PCM.
 Atomic radii         : Bondi.
 Polarization charges : Total charges.
 Charge compensation  : None.
 Solution method      : Matrix inversion.
 Cavity type          : Scaled VdW (van der Waals Surface) (Alpha=1.100).
 Cavity algorithm     : GePol (No added spheres)
                        Default sphere list used, NSphG=   34.
                        Lebedev-Laikov grids with approx.  5.0 points / Ang**2.
                        Smoothing algorithm: Karplus/York (Gamma=1.0000).
                        Polarization charges: spherical gaussians, with
                                              point-specific exponents (IZeta= 3).
                        Self-potential: point-specific (ISelfS= 7).
                        Self-field    : sphere-specific E.n sum rule (ISelfD= 2).
 Solvent              : Methanol, Eps=  32.613000 Eps(inf)=   1.765709
 ------------------------------------------------------------------------------
 One-electron integrals computed using PRISM.
 NBasis=   632 RedAO= T  NBF=   632
 NBsUse=   630 1.00D-06 NBFU=   630
 Initial guess read from the checkpoint file:  1b-conf-7.chk
 B after Tr=     0.000000    0.000000    0.000000
         Rot=    1.000000    0.000000    0.000000    0.000000 Ang=   0.00 deg.
 Initial guess orbital symmetries:
       Occupied  (A) (A) (A) (A) (A) (A) (A) (A) (A) (A) (A) (A)
                 (A) (A) (A) (A) (A) (A) (A) (A) (A) (A) (A) (A)
                 (A) (A) (A) (A) (A) (A) (A) (A) (A) (A) (A) (A)
                 (A) (A) (A) (A) (A) (A) (A) (A) (A) (A) (A) (A)
                 (A) (A) (A) (A) (A) (A) (A) (A) (A) (A) (A) (A)
                 (A) (A) (A) (A) (A) (A) (A) (A) (A) (A) (A) (A)
                 (A) (A) (A) (A) (A) (A)
       Virtual   (A) (A) (A) (A) (A) (A) (A) (A) (A) (A) (A) (A)
                 (A) (A) (A) (A) (A) (A) (A) (A) (A) (A) (A) (A)
                 (A) (A) (A) (A) (A) (A) (A) (A) (A) (A) (A) (A)
                 (A) (A) (A) (A) (A) (A) (A) (A) (A) (A) (A) (A)
                 (A) (A) (A) (A) (A) (A) (A) (A) (A) (A) (A) (A)
                 (A) (A) (A) (A) (A) (A) (A) (A) (A) (A) (A) (A)
                 (A) (A) (A) (A) (A) (A) (A) (A) (A) (A) (A) (A)
                 (A) (A) (A) (A) (A) (A) (A) (A) (A) (A) (A) (A)
                 (A) (A) (A) (A) (A) (A) (A) (A) (A) (A) (A) (A)
                 (A) (A) (A) (A) (A) (A) (A) (A) (A) (A) (A) (A)
                 (A) (A) (A) (A) (A) (A) (A) (A) (A) (A) (A) (A)
                 (A) (A) (A) (A) (A) (A) (A) (A) (A) (A) (A) (A)
                 (A) (A) (A) (A) (A) (A) (A) (A) (A) (A) (A) (A)
                 (A) (A) (A) (A) (A) (A) (A) (A) (A) (A) (A) (A)
                 (A) (A) (A) (A) (A) (A) (A) (A) (A) (A) (A) (A)
                 (A) (A) (A) (A) (A) (A) (A) (A) (A) (A) (A) (A)
                 (A) (A) (A) (A) (A) (A) (A) (A) (A) (A) (A) (A)
                 (A) (A) (A) (A) (A) (A) (A) (A) (A) (A) (A) (A)
                 (A) (A) (A) (A) (A) (A) (A) (A) (A) (A) (A) (A)
                 (A) (A) (A) (A) (A) (A) (A) (A) (A) (A) (A) (A)
                 (A) (A) (A) (A) (A) (A) (A) (A) (A) (A) (A) (A)
                 (A) (A) (A) (A) (A) (A) (A) (A) (A) (A) (A) (A)
                 (A) (A) (A) (A) (A) (A) (A) (A) (A) (A) (A) (A)
                 (A) (A) (A) (A) (A) (A) (A) (A) (A) (A) (A) (A)
                 (A) (A) (A) (A) (A) (A) (A) (A) (A) (A) (A) (A)
                 (A) (A) (A) (A) (A) (A) (A) (A) (A) (A) (A) (A)
                 (A) (A) (A) (A) (A) (A) (A) (A) (A) (A) (A) (A)
                 (A) (A) (A) (A) (A) (A) (A) (A) (A) (A) (A) (A)
                 (A) (A) (A) (A) (A) (A) (A) (A) (A) (A) (A) (A)
                 (A) (A) (A) (A) (A) (A) (A) (A) (A) (A) (A) (A)
                 (A) (A) (A) (A) (A) (A) (A) (A) (A) (A) (A) (A)
                 (A) (A) (A) (A) (A) (A) (A) (A) (A) (A) (A) (A)
                 (A) (A) (A) (A) (A) (A) (A) (A) (A) (A) (A) (A)
                 (A) (A) (A) (A) (A) (A) (A) (A) (A) (A) (A) (A)
                 (A) (A) (A) (A) (A) (A) (A) (A) (A) (A) (A) (A)
                 (A) (A) (A) (A) (A) (A) (A) (A) (A) (A) (A) (A)
                 (A) (A) (A) (A) (A) (A) (A) (A) (A) (A) (A) (A)
                 (A) (A) (A) (A) (A) (A) (A) (A) (A) (A) (A) (A)
                 (A) (A) (A) (A) (A) (A) (A) (A) (A) (A) (A) (A)
                 (A) (A) (A) (A) (A) (A) (A) (A) (A) (A) (A) (A)
                 (A) (A) (A) (A) (A) (A) (A) (A) (A) (A) (A) (A)
                 (A) (A) (A) (A) (A) (A) (A) (A) (A) (A) (A) (A)
                 (A) (A) (A) (A) (A) (A) (A) (A) (A) (A) (A) (A)
                 (A) (A) (A) (A) (A) (A) (A) (A) (A) (A) (A) (A)
                 (A) (A) (A) (A) (A) (A) (A) (A) (A) (A) (A) (A)
                 (A) (A) (A) (A) (A) (A) (A) (A) (A) (A) (A) (A)
 Requested convergence on RMS density matrix=1.00D-08 within 128 cycles.
 Requested convergence on MAX density matrix=1.00D-06.
 Requested convergence on             energy=1.00D-06.
 No special actions if energy rises.
 Error on total polarization charges =  0.05101
 SCF Done:  E(RB3LYP) =  -1395.25806540     A.U. after   12 cycles
             Convg  =    0.8653D-08             -V/T =  2.0034
 Range of M.O.s used for correlation:     1   630
 NBasis=   632 NAE=    78 NBE=    78 NFC=     0 NFV=     0
 NROrb=    630 NOA=    78 NOB=    78 NVA=   552 NVB=   552

 **** Warning!!: The largest alpha MO coefficient is  0.15393887D+03

 NEqPCM:  Using equilibrium solvation (IEInf=0, Eps=  32.6130, EpsInf=   1.7657)
          Differentiating once with respect to magnetic field using GIAOs.
          Electric field/nuclear overlap derivatives assumed to be zero.
 FoFCou: FMM=F IPFlag=           0 FMFlag=    10101102 FMFlg1=           0
         NFxFlg=    40000000 DoJE=F BraDBF=F KetDBF=T FulRan=T
         Omega=  0.000000  0.000000  1.000000  0.000000  0.000000 ICntrl=    6100 IOpCl=  0
         NMat0=    1 NMatS0=    1 NMatT0=    0 NMatD0=    1 NMtDS0=    0 NMtDT0=    0
         I1Cent=           7 NGrid=        2468.
 Symmetry not used in FoFCou.
          There are     3 degrees of freedom in the 1st order CPHF.  IDoFFX=0.
      3 vectors produced by pass  0 Test12= 1.44D-12 3.33D-08 XBig12= 5.08D+02 6.36D+00.
 AX will form     3 AO Fock derivatives at one time.
      3 vectors produced by pass  1 Test12= 1.44D-12 3.33D-08 XBig12= 8.92D-01 2.73D-01.
      3 vectors produced by pass  2 Test12= 1.44D-12 3.33D-08 XBig12= 4.49D-03 3.07D-02.
      3 vectors produced by pass  3 Test12= 1.44D-12 3.33D-08 XBig12= 2.05D-05 1.39D-03.
      3 vectors produced by pass  4 Test12= 1.44D-12 3.33D-08 XBig12= 4.72D-08 6.39D-05.
      3 vectors produced by pass  5 Test12= 1.44D-12 3.33D-08 XBig12= 2.06D-10 4.52D-06.
      3 vectors produced by pass  6 Test12= 1.44D-12 3.33D-08 XBig12= 5.25D-13 2.14D-07.
 Inverted reduced A of dimension    21 with in-core refinement.
 Calculating GIAO nuclear magnetic shielding tensors.
 SCF GIAO Magnetic shielding tensor (ppm):
  1  O    Isotropic =   185.6229   Anisotropy =   134.9752
   XX=   151.5569   YX=    33.5949   ZX=    -3.1484
   XY=    20.8156   YY=   143.7145   ZY=    32.7677
   XZ=    14.9932   YZ=    47.7853   ZZ=   261.5971
   Eigenvalues:   114.7647   166.4976   275.6063
  2  C    Isotropic =    16.5461   Anisotropy =   150.9637
   XX=   -42.4417   YX=   -26.9650   ZX=    12.3093
   XY=   -25.5254   YY=   -15.0179   ZY=    35.8215
   XZ=    11.1271   YZ=    36.7483   ZZ=   107.0979
   Eigenvalues:   -63.5036    -4.0467   117.1885
  3  C    Isotropic =    65.5731   Anisotropy =   142.1914
   XX=     6.1166   YX=    21.5216   ZX=    -1.3260
   XY=     9.8760   YY=    38.9114   ZY=    32.1154
   XZ=     2.4191   YZ=    32.2607   ZZ=   151.6915
   Eigenvalues:    -1.1761    37.5281   160.3674
  4  C    Isotropic =    10.4118   Anisotropy =    85.1792
   XX=    18.9872   YX=    40.1117   ZX=   -10.7130
   XY=    41.4080   YY=   -46.1124   ZY=    32.0466
   XZ=   -18.1862   YZ=    30.0873   ZZ=    58.3606
   Eigenvalues:   -74.5552    38.5927    67.1979
  5  N    Isotropic =    25.0766   Anisotropy =   220.0182
   XX=   -54.9871   YX=    75.3471   ZX=   -28.1550
   XY=    68.6759   YY=   -27.3332   ZY=    69.3785
   XZ=   -16.4811   YZ=    36.8005   ZZ=   157.5500
   Eigenvalues:  -123.8891    27.3635   171.7554
  6  C    Isotropic =   108.9226   Anisotropy =    52.1999
   XX=   130.5546   YX=   -18.8203   ZX=    -5.0450
   XY=   -14.8790   YY=   120.8686   ZY=   -12.4613
   XZ=     4.3518   YZ=    -7.2320   ZZ=    75.3447
   Eigenvalues:    73.0355   110.0098   143.7225
  7  C    Isotropic =   110.4447   Anisotropy =    55.5911
   XX=   128.3064   YX=   -25.3558   ZX=     6.3323
   XY=   -20.9407   YY=   114.3769   ZY=   -11.0678
   XZ=     5.2455   YZ=    -9.5009   ZZ=    88.6509
   Eigenvalues:    84.8623    98.9664   147.5055
  8  O    Isotropic =   280.0076   Anisotropy =    22.3851
   XX=   292.9380   YX=    -7.3752   ZX=     6.2704
   XY=    -3.9308   YY=   272.4174   ZY=     9.7501
   XZ=     3.0057   YZ=     0.8937   ZZ=   274.6675
   Eigenvalues:   266.1100   278.9818   294.9310
  9  C    Isotropic =   144.2173   Anisotropy =    31.1271
   XX=   143.6818   YX=    14.6161   ZX=     5.3728
   XY=     8.8308   YY=   153.7575   ZY=    -0.0051
   XZ=     5.6228   YZ=    17.1641   ZZ=   135.2127
   Eigenvalues:   131.7203   135.9630   164.9687
 10  C    Isotropic =    -2.0642   Anisotropy =   113.2142
   XX=    53.3580   YX=   -28.1249   ZX=   -34.5492
   XY=   -41.1803   YY=   -73.0301   ZY=   -42.8373
   XZ=   -30.5157   YZ=   -19.8130   ZZ=    13.4797
   Eigenvalues:   -95.8615    16.2570    73.4120
 11  O    Isotropic =   112.5028   Anisotropy =   188.5313
   XX=   119.8575   YX=     9.9277   ZX=   -58.0495
   XY=    55.0249   YY=   227.3362   ZY=    87.8090
   XZ=   -74.1139   YZ=   -11.0642   ZZ=    -9.6852
   Eigenvalues:   -45.8987   145.2168   238.1904
 12  O    Isotropic =   -59.8599   Anisotropy =   483.5418
   XX=   183.3034   YX=   -61.2930   ZX=  -158.9329
   XY=   -42.8801   YY=  -268.7254   ZY=    75.2562
   XZ=  -152.0643   YZ=    39.7052   ZZ=   -94.1575
   Eigenvalues:  -286.0333  -156.0476   262.5013
 13  C    Isotropic =    98.6595   Anisotropy =    77.7122
   XX=   143.7276   YX=   -14.5207   ZX=    -7.9179
   XY=   -17.7005   YY=    85.3185   ZY=     5.9261
   XZ=   -14.6797   YZ=    23.0230   ZZ=    66.9323
   Eigenvalues:    58.9158    86.5950   150.4676
 14  C    Isotropic =   167.2783   Anisotropy =    22.0547
   XX=   171.0240   YX=    -0.9661   ZX=     2.2238
   XY=    -5.2805   YY=   160.5484   ZY=    12.8428
   XZ=    -5.6570   YZ=    16.8520   ZZ=   170.2625
   Eigenvalues:   149.6737   170.1798   181.9814
 15  O    Isotropic =   119.7134   Anisotropy =   116.5795
   XX=    33.6331   YX=     1.8140   ZX=    11.1036
   XY=     2.4727   YY=   197.0678   ZY=     1.9514
   XZ=   -24.4968   YZ=     7.8511   ZZ=   128.4393
   Eigenvalues:    33.1248   128.5824   197.4331
 16  C    Isotropic =    49.0987   Anisotropy =   156.2640
   XX=    37.0519   YX=     0.1279   ZX=     3.5255
   XY=    -6.1569   YY=   -30.2792   ZY=    48.5656
   XZ=     5.5260   YZ=    47.7359   ZZ=   140.5235
   Eigenvalues:   -43.1243    37.1458   153.2747
 17  C    Isotropic =    48.1367   Anisotropy =    99.4542
   XX=    -4.3615   YX=   -51.3092   ZX=    16.9973
   XY=   -50.9777   YY=    40.3330   ZY=    20.9922
   XZ=    16.9671   YZ=    20.9153   ZZ=   108.4386
   Eigenvalues:   -42.2223    72.1929   114.4395
 18  Cl   Isotropic =   709.5621   Anisotropy =   496.4570
   XX=   885.5841   YX=   224.3332   ZX=   -69.0127
   XY=   223.6901   YY=   674.5339   ZY=   -38.3702
   XZ=   -67.2128   YZ=   -37.6601   ZZ=   568.5682
   Eigenvalues:   531.6583   556.4945  1040.5334
 19  C    Isotropic =    42.9027   Anisotropy =   162.4898
   XX=   -34.3515   YX=    36.5321   ZX=    -3.8218
   XY=    37.2335   YY=    20.0848   ZY=    33.1562
   XZ=    -3.3781   YZ=    31.9415   ZZ=   142.9749
   Eigenvalues:   -54.6588    32.1376   151.2293
 20  C    Isotropic =    59.7291   Anisotropy =   146.8465
   XX=    46.6150   YX=     1.6517   ZX=     3.0551
   XY=     4.4449   YY=   -13.3228   ZY=    44.7000
   XZ=     2.4087   YZ=    44.4372   ZZ=   145.8951
   Eigenvalues:   -25.0209    46.5814   157.6268
 21  H    Isotropic =    20.0151   Anisotropy =    25.9898
   XX=    27.9958   YX=   -11.2226   ZX=     2.1590
   XY=    -8.4303   YY=    25.5166   ZY=    -4.8588
   XZ=     0.7977   YZ=    -5.5462   ZZ=     6.5328
   Eigenvalues:     5.1455    17.5582    37.3416
 22  H    Isotropic =    26.9960   Anisotropy =     6.5737
   XX=    29.2669   YX=     2.2488   ZX=     1.3294
   XY=     1.9599   YY=    25.3861   ZY=     0.8246
   XZ=     3.6731   YZ=    -0.1162   ZZ=    26.3350
   Eigenvalues:    24.0989    25.5106    31.3785
 23  H    Isotropic =    27.7627   Anisotropy =     3.3837
   XX=    27.8812   YX=     2.6307   ZX=     1.8925
   XY=     0.9191   YY=    27.8630   ZY=    -0.6998
   XZ=     0.2500   YZ=     1.2191   ZZ=    27.5439
   Eigenvalues:    25.8702    27.3994    30.0185
 24  H    Isotropic =    28.2839   Anisotropy =    17.1668
   XX=    26.4520   YX=    -0.3746   ZX=     9.5993
   XY=    -0.4395   YY=    26.2846   ZY=     3.2945
   XZ=     9.2040   YZ=     4.4472   ZZ=    32.1150
   Eigenvalues:    18.5215    26.6018    39.7284
 25  H    Isotropic =    28.7566   Anisotropy =     6.8857
   XX=    28.4283   YX=     1.6031   ZX=    -3.4938
   XY=     2.5929   YY=    27.7361   ZY=    -0.4115
   XZ=    -3.4867   YZ=    -0.4105   ZZ=    30.1053
   Eigenvalues:    24.9019    28.0207    33.3470
 26  H    Isotropic =    28.4898   Anisotropy =     5.6777
   XX=    29.6691   YX=    -1.0957   ZX=     1.7051
   XY=    -0.3577   YY=    31.1229   ZY=    -1.9848
   XZ=     0.4789   YZ=    -2.6132   ZZ=    24.6774
   Eigenvalues:    23.8242    29.3703    32.2749
 27  H    Isotropic =    24.7294   Anisotropy =    11.9767
   XX=    24.0041   YX=     2.6786   ZX=     3.3288
   XY=     4.6494   YY=    25.4002   ZY=     7.2380
   XZ=     2.5817   YZ=     2.9226   ZZ=    24.7839
   Eigenvalues:    19.9352    21.5392    32.7139
 28  H    Isotropic =    26.5647   Anisotropy =     4.3488
   XX=    26.2467   YX=    -1.2830   ZX=     1.4223
   XY=     0.0496   YY=    26.0734   ZY=    -2.3987
   XZ=     0.4183   YZ=    -2.1381   ZZ=    27.3741
   Eigenvalues:    24.3616    25.8686    29.4640
 29  H    Isotropic =    30.5364   Anisotropy =     5.0533
   XX=    28.3787   YX=     0.1165   ZX=     2.2838
   XY=     0.0915   YY=    29.8743   ZY=     0.2799
   XZ=     1.0624   YZ=     0.4849   ZZ=    33.3563
   Eigenvalues:    27.8685    29.8355    33.9053
 30  H    Isotropic =    30.5251   Anisotropy =     9.4172
   XX=    29.5398   YX=     3.6993   ZX=    -0.8742
   XY=     3.5010   YY=    34.8379   ZY=     0.7383
   XZ=    -0.1378   YZ=     2.3952   ZZ=    27.1976
   Eigenvalues:    26.1894    28.5827    36.8033
 31  H    Isotropic =    30.2846   Anisotropy =     8.3290
   XX=    33.8942   YX=    -1.4784   ZX=    -1.8299
   XY=    -1.7858   YY=    30.9646   ZY=     2.8254
   XZ=    -2.6802   YZ=     3.4462   ZZ=    25.9951
   Eigenvalues:    24.2828    30.7338    35.8373
 32  H    Isotropic =    23.7190   Anisotropy =    12.4614
   XX=    31.9511   YX=    -0.8988   ZX=    -0.4496
   XY=    -0.6992   YY=    20.8409   ZY=    -0.6520
   XZ=    -0.6493   YZ=    -0.6855   ZZ=    18.3650
   Eigenvalues:    18.1570    20.9733    32.0266
 33  H    Isotropic =    24.0642   Anisotropy =     7.2287
   XX=    24.1509   YX=     2.2492   ZX=    -0.7387
   XY=     1.6206   YY=    27.4622   ZY=    -1.9924
   XZ=    -0.5583   YZ=    -2.0271   ZZ=    20.5794
   Eigenvalues:    20.0315    23.2777    28.8833
 34  H    Isotropic =    24.5463   Anisotropy =     5.7810
   XX=    28.3870   YX=    -0.5684   ZX=    -0.1154
   XY=     0.2600   YY=    24.1305   ZY=    -0.8397
   XZ=    -0.4109   YZ=    -0.7880   ZZ=    21.1214
   Eigenvalues:    20.9039    24.3347    28.4003
 End of Minotr Frequency-dependent properties file   721 does not exist.
 End of Minotr Frequency-dependent properties file   722 does not exist.

 **********************************************************************

            Population analysis using the SCF density.

 **********************************************************************

 Orbital symmetries:
       Occupied  (A) (A) (A) (A) (A) (A) (A) (A) (A) (A) (A) (A)
                 (A) (A) (A) (A) (A) (A) (A) (A) (A) (A) (A) (A)
                 (A) (A) (A) (A) (A) (A) (A) (A) (A) (A) (A) (A)
                 (A) (A) (A) (A) (A) (A) (A) (A) (A) (A) (A) (A)
                 (A) (A) (A) (A) (A) (A) (A) (A) (A) (A) (A) (A)
                 (A) (A) (A) (A) (A) (A) (A) (A) (A) (A) (A) (A)
                 (A) (A) (A) (A) (A) (A)
       Virtual   (A) (A) (A) (A) (A) (A) (A) (A) (A) (A) (A) (A)
                 (A) (A) (A) (A) (A) (A) (A) (A) (A) (A) (A) (A)
                 (A) (A) (A) (A) (A) (A) (A) (A) (A) (A) (A) (A)
                 (A) (A) (A) (A) (A) (A) (A) (A) (A) (A) (A) (A)
                 (A) (A) (A) (A) (A) (A) (A) (A) (A) (A) (A) (A)
                 (A) (A) (A) (A) (A) (A) (A) (A) (A) (A) (A) (A)
                 (A) (A) (A) (A) (A) (A) (A) (A) (A) (A) (A) (A)
                 (A) (A) (A) (A) (A) (A) (A) (A) (A) (A) (A) (A)
                 (A) (A) (A) (A) (A) (A) (A) (A) (A) (A) (A) (A)
                 (A) (A) (A) (A) (A) (A) (A) (A) (A) (A) (A) (A)
                 (A) (A) (A) (A) (A) (A) (A) (A) (A) (A) (A) (A)
                 (A) (A) (A) (A) (A) (A) (A) (A) (A) (A) (A) (A)
                 (A) (A) (A) (A) (A) (A) (A) (A) (A) (A) (A) (A)
                 (A) (A) (A) (A) (A) (A) (A) (A) (A) (A) (A) (A)
                 (A) (A) (A) (A) (A) (A) (A) (A) (A) (A) (A) (A)
                 (A) (A) (A) (A) (A) (A) (A) (A) (A) (A) (A) (A)
                 (A) (A) (A) (A) (A) (A) (A) (A) (A) (A) (A) (A)
                 (A) (A) (A) (A) (A) (A) (A) (A) (A) (A) (A) (A)
                 (A) (A) (A) (A) (A) (A) (A) (A) (A) (A) (A) (A)
                 (A) (A) (A) (A) (A) (A) (A) (A) (A) (A) (A) (A)
                 (A) (A) (A) (A) (A) (A) (A) (A) (A) (A) (A) (A)
                 (A) (A) (A) (A) (A) (A) (A) (A) (A) (A) (A) (A)
                 (A) (A) (A) (A) (A) (A) (A) (A) (A) (A) (A) (A)
                 (A) (A) (A) (A) (A) (A) (A) (A) (A) (A) (A) (A)
                 (A) (A) (A) (A) (A) (A) (A) (A) (A) (A) (A) (A)
                 (A) (A) (A) (A) (A) (A) (A) (A) (A) (A) (A) (A)
                 (A) (A) (A) (A) (A) (A) (A) (A) (A) (A) (A) (A)
                 (A) (A) (A) (A) (A) (A) (A) (A) (A) (A) (A) (A)
                 (A) (A) (A) (A) (A) (A) (A) (A) (A) (A) (A) (A)
                 (A) (A) (A) (A) (A) (A) (A) (A) (A) (A) (A) (A)
                 (A) (A) (A) (A) (A) (A) (A) (A) (A) (A) (A) (A)
                 (A) (A) (A) (A) (A) (A) (A) (A) (A) (A) (A) (A)
                 (A) (A) (A) (A) (A) (A) (A) (A) (A) (A) (A) (A)
                 (A) (A) (A) (A) (A) (A) (A) (A) (A) (A) (A) (A)
                 (A) (A) (A) (A) (A) (A) (A) (A) (A) (A) (A) (A)
                 (A) (A) (A) (A) (A) (A) (A) (A) (A) (A) (A) (A)
                 (A) (A) (A) (A) (A) (A) (A) (A) (A) (A) (A) (A)
                 (A) (A) (A) (A) (A) (A) (A) (A) (A) (A) (A) (A)
                 (A) (A) (A) (A) (A) (A) (A) (A) (A) (A) (A) (A)
                 (A) (A) (A) (A) (A) (A) (A) (A) (A) (A) (A) (A)
                 (A) (A) (A) (A) (A) (A) (A) (A) (A) (A) (A) (A)
                 (A) (A) (A) (A) (A) (A) (A) (A) (A) (A) (A) (A)
                 (A) (A) (A) (A) (A) (A) (A) (A) (A) (A) (A) (A)
                 (A) (A) (A) (A) (A) (A) (A) (A) (A) (A) (A) (A)
                 (A) (A) (A) (A) (A) (A) (A) (A) (A) (A) (A) (A)
                 (A) (A) (A) (A) (A) (A) (A) (A) (A) (A) (A) (A)
 The electronic state is 1-A.
 Alpha  occ. eigenvalues -- -101.55943 -19.18509 -19.17279 -19.15462 -19.13197
 Alpha  occ. eigenvalues --  -19.13094 -14.31385 -10.32328 -10.28344 -10.25554
 Alpha  occ. eigenvalues --  -10.23763 -10.23750 -10.23418 -10.21134 -10.20412
 Alpha  occ. eigenvalues --  -10.19787 -10.19652 -10.18781 -10.18549 -10.16120
 Alpha  occ. eigenvalues --   -9.47394  -7.23828  -7.22889  -7.22864  -1.12812
 Alpha  occ. eigenvalues --   -1.11034  -1.07311  -1.04370  -1.03147  -0.92555
 Alpha  occ. eigenvalues --   -0.90150  -0.84998  -0.81708  -0.78877  -0.76960
 Alpha  occ. eigenvalues --   -0.74002  -0.71438  -0.68110  -0.64735  -0.63439
 Alpha  occ. eigenvalues --   -0.61239  -0.60055  -0.58480  -0.54794  -0.53914
 Alpha  occ. eigenvalues --   -0.52104  -0.50964  -0.50460  -0.50149  -0.48679
 Alpha  occ. eigenvalues --   -0.47880  -0.47142  -0.46333  -0.45582  -0.44830
 Alpha  occ. eigenvalues --   -0.43942  -0.43451  -0.41871  -0.41350  -0.40890
 Alpha  occ. eigenvalues --   -0.39944  -0.39362  -0.38940  -0.38808  -0.38518
 Alpha  occ. eigenvalues --   -0.37805  -0.36880  -0.35226  -0.34806  -0.34284
 Alpha  occ. eigenvalues --   -0.32394  -0.32379  -0.30525  -0.29904  -0.29531
 Alpha  occ. eigenvalues --   -0.28329  -0.26010  -0.23375
 Alpha virt. eigenvalues --   -0.06010  -0.02047  -0.01708  -0.00026   0.00847
 Alpha virt. eigenvalues --    0.00974   0.01670   0.01909   0.02647   0.03099
 Alpha virt. eigenvalues --    0.03331   0.03935   0.04560   0.05076   0.05475
 Alpha virt. eigenvalues --    0.05610   0.06034   0.06345   0.07020   0.07433
 Alpha virt. eigenvalues --    0.07600   0.07823   0.08404   0.09021   0.09179
 Alpha virt. eigenvalues --    0.09708   0.10104   0.10459   0.11144   0.11645
 Alpha virt. eigenvalues --    0.11841   0.12336   0.12874   0.12983   0.13485
 Alpha virt. eigenvalues --    0.13837   0.14193   0.14627   0.14907   0.15286
 Alpha virt. eigenvalues --    0.15388   0.15493   0.15864   0.16521   0.16700
 Alpha virt. eigenvalues --    0.16774   0.17199   0.17471   0.17681   0.18182
 Alpha virt. eigenvalues --    0.18379   0.18917   0.19322   0.19843   0.20173
 Alpha virt. eigenvalues --    0.20326   0.20669   0.20897   0.21034   0.21624
 Alpha virt. eigenvalues --    0.21764   0.22029   0.22672   0.23189   0.23288
 Alpha virt. eigenvalues --    0.23584   0.23954   0.24203   0.24349   0.24504
 Alpha virt. eigenvalues --    0.25331   0.25580   0.25680   0.25895   0.26543
 Alpha virt. eigenvalues --    0.26734   0.27400   0.27436   0.27972   0.28246
 Alpha virt. eigenvalues --    0.28538   0.28558   0.29175   0.29557   0.30072
 Alpha virt. eigenvalues --    0.30335   0.31234   0.31422   0.31700   0.31899
 Alpha virt. eigenvalues --    0.32231   0.32571   0.32788   0.33899   0.34203
 Alpha virt. eigenvalues --    0.34373   0.34790   0.35156   0.35417   0.36013
 Alpha virt. eigenvalues --    0.36073   0.36662   0.37411   0.37611   0.38641
 Alpha virt. eigenvalues --    0.39213   0.39856   0.40376   0.41052   0.41882
 Alpha virt. eigenvalues --    0.42449   0.42744   0.43746   0.44111   0.44732
 Alpha virt. eigenvalues --    0.45068   0.45246   0.46306   0.47209   0.47663
 Alpha virt. eigenvalues --    0.47815   0.48174   0.49642   0.49845   0.50511
 Alpha virt. eigenvalues --    0.51302   0.52017   0.52497   0.52904   0.53357
 Alpha virt. eigenvalues --    0.53763   0.54170   0.54943   0.55025   0.56272
 Alpha virt. eigenvalues --    0.56842   0.57170   0.58286   0.58538   0.58894
 Alpha virt. eigenvalues --    0.59621   0.59873   0.60104   0.61056   0.62435
 Alpha virt. eigenvalues --    0.62724   0.63111   0.63440   0.64837   0.65013
 Alpha virt. eigenvalues --    0.65563   0.65954   0.66275   0.66913   0.66988
 Alpha virt. eigenvalues --    0.67793   0.68052   0.68706   0.69491   0.70424
 Alpha virt. eigenvalues --    0.70584   0.71093   0.72221   0.72722   0.73011
 Alpha virt. eigenvalues --    0.73416   0.74641   0.75168   0.75764   0.75892
 Alpha virt. eigenvalues --    0.76409   0.76938   0.77422   0.78053   0.78824
 Alpha virt. eigenvalues --    0.80070   0.80396   0.80790   0.81290   0.82225
 Alpha virt. eigenvalues --    0.82566   0.83538   0.84274   0.84789   0.85318
 Alpha virt. eigenvalues --    0.87037   0.87782   0.88081   0.88717   0.89492
 Alpha virt. eigenvalues --    0.91004   0.91624   0.93236   0.94448   0.95297
 Alpha virt. eigenvalues --    0.95853   0.97135   0.97721   0.98015   0.98875
 Alpha virt. eigenvalues --    0.99887   1.00804   1.01827   1.03153   1.03974
 Alpha virt. eigenvalues --    1.04255   1.04572   1.04939   1.05885   1.06957
 Alpha virt. eigenvalues --    1.08081   1.08529   1.09297   1.09750   1.11149
 Alpha virt. eigenvalues --    1.11229   1.11784   1.12533   1.13151   1.13940
 Alpha virt. eigenvalues --    1.14744   1.15154   1.16569   1.16928   1.17508
 Alpha virt. eigenvalues --    1.17966   1.18902   1.19353   1.20437   1.21611
 Alpha virt. eigenvalues --    1.21899   1.23375   1.23487   1.24839   1.24932
 Alpha virt. eigenvalues --    1.25539   1.26065   1.26883   1.27984   1.29031
 Alpha virt. eigenvalues --    1.29869   1.30385   1.31173   1.32218   1.32662
 Alpha virt. eigenvalues --    1.33398   1.33771   1.34252   1.34938   1.36079
 Alpha virt. eigenvalues --    1.36627   1.37002   1.37497   1.39688   1.40183
 Alpha virt. eigenvalues --    1.40386   1.41401   1.41665   1.43490   1.45261
 Alpha virt. eigenvalues --    1.46857   1.47857   1.51195   1.51670   1.52214
 Alpha virt. eigenvalues --    1.53670   1.54419   1.55493   1.57397   1.58305
 Alpha virt. eigenvalues --    1.58735   1.59055   1.60702   1.61396   1.62152
 Alpha virt. eigenvalues --    1.63108   1.65052   1.66516   1.67247   1.68360
 Alpha virt. eigenvalues --    1.68666   1.70271   1.72347   1.73870   1.74131
 Alpha virt. eigenvalues --    1.75371   1.76173   1.77900   1.78158   1.80424
 Alpha virt. eigenvalues --    1.81768   1.84542   1.85236   1.85859   1.86796
 Alpha virt. eigenvalues --    1.88310   1.90664   1.90933   1.92837   1.93209
 Alpha virt. eigenvalues --    1.93539   1.95519   1.95837   1.96721   1.99840
 Alpha virt. eigenvalues --    2.00994   2.02979   2.06595   2.07611   2.08430
 Alpha virt. eigenvalues --    2.09492   2.11658   2.13244   2.14836   2.16076
 Alpha virt. eigenvalues --    2.18348   2.18792   2.20783   2.21580   2.23001
 Alpha virt. eigenvalues --    2.25015   2.27568   2.28402   2.28801   2.29359
 Alpha virt. eigenvalues --    2.30938   2.33683   2.34056   2.35148   2.35757
 Alpha virt. eigenvalues --    2.36057   2.37256   2.38253   2.39621   2.39682
 Alpha virt. eigenvalues --    2.40803   2.43676   2.44104   2.44973   2.45376
 Alpha virt. eigenvalues --    2.47135   2.48951   2.49185   2.49696   2.51562
 Alpha virt. eigenvalues --    2.52492   2.53753   2.55427   2.58989   2.60329
 Alpha virt. eigenvalues --    2.61629   2.62165   2.63294   2.63370   2.64966
 Alpha virt. eigenvalues --    2.65370   2.67971   2.69809   2.71444   2.71934
 Alpha virt. eigenvalues --    2.74801   2.75921   2.78508   2.79588   2.80569
 Alpha virt. eigenvalues --    2.82471   2.82565   2.83830   2.84733   2.85399
 Alpha virt. eigenvalues --    2.86161   2.86900   2.88614   2.89698   2.90689
 Alpha virt. eigenvalues --    2.92456   2.95262   2.97601   2.98018   3.00402
 Alpha virt. eigenvalues --    3.01060   3.02660   3.05816   3.06814   3.08438
 Alpha virt. eigenvalues --    3.08888   3.10144   3.12012   3.14755   3.17068
 Alpha virt. eigenvalues --    3.19182   3.20327   3.23077   3.25362   3.26442
 Alpha virt. eigenvalues --    3.27477   3.28115   3.29396   3.31615   3.32883
 Alpha virt. eigenvalues --    3.35316   3.35716   3.37883   3.38426   3.39419
 Alpha virt. eigenvalues --    3.40509   3.41037   3.42252   3.42443   3.43170
 Alpha virt. eigenvalues --    3.44011   3.44911   3.47151   3.48095   3.49097
 Alpha virt. eigenvalues --    3.50649   3.51804   3.52609   3.54297   3.55356
 Alpha virt. eigenvalues --    3.55884   3.56543   3.57388   3.57972   3.58424
 Alpha virt. eigenvalues --    3.58655   3.59540   3.60236   3.60448   3.61627
 Alpha virt. eigenvalues --    3.62795   3.64157   3.65827   3.66306   3.67638
 Alpha virt. eigenvalues --    3.69770   3.69961   3.72278   3.73287   3.74976
 Alpha virt. eigenvalues --    3.75336   3.76957   3.77979   3.79123   3.79974
 Alpha virt. eigenvalues --    3.80789   3.81176   3.83174   3.83909   3.85120
 Alpha virt. eigenvalues --    3.86247   3.88815   3.89485   3.93698   3.95133
 Alpha virt. eigenvalues --    3.96203   3.98941   4.00954   4.02018   4.05799
 Alpha virt. eigenvalues --    4.07467   4.09536   4.11385   4.14678   4.17298
 Alpha virt. eigenvalues --    4.21439   4.23560   4.24661   4.26715   4.29909
 Alpha virt. eigenvalues --    4.36176   4.39827   4.40463   4.41756   4.48917
 Alpha virt. eigenvalues --    4.56506   4.58433   4.60837   4.74792   4.78434
 Alpha virt. eigenvalues --    4.86488   4.99429   5.02225   5.06267   5.07340
 Alpha virt. eigenvalues --    5.08595   5.12745   5.18410   5.20192   5.24896
 Alpha virt. eigenvalues --    5.26018   5.38266   5.40896   5.44363   5.49713
 Alpha virt. eigenvalues --    5.56649   5.61454   5.64921   5.78171   5.81920
 Alpha virt. eigenvalues --    5.93395   6.10225   6.11975   6.75887   6.81604
 Alpha virt. eigenvalues --    6.85190   6.86530   6.91323   6.95962   6.96433
 Alpha virt. eigenvalues --    6.99309   7.00045   7.02926   7.06621   7.07297
 Alpha virt. eigenvalues --    7.07993   7.11073   7.13179   7.14526   7.20897
 Alpha virt. eigenvalues --    7.23737   7.30158   7.31566   7.35727   7.37366
 Alpha virt. eigenvalues --    7.39814   7.42266   7.52676   9.89624  23.67019
 Alpha virt. eigenvalues --   23.90183  23.94423  23.95948  23.98531  24.00703
 Alpha virt. eigenvalues --   24.02518  24.03953  24.08420  24.09465  24.14057
 Alpha virt. eigenvalues --   24.18289  24.32701  25.87438  26.28459  27.40674
 Alpha virt. eigenvalues --   35.77227  49.93191  49.99894  50.03636  50.04457
 Alpha virt. eigenvalues --   50.07376 215.89812
          Condensed to atoms (all electrons):
              1          2          3          4          5          6
     1  O    8.417653   0.389509   0.104972  -0.046238   0.010246  -0.005871
     2  C    0.389509   9.369860   0.101733  -0.376310  -0.073750   0.160594
     3  C    0.104972   0.101733   7.622721   0.283433   0.039014  -0.014183
     4  C   -0.046238  -0.376310   0.283433   6.261541   0.387388  -0.633407
     5  N    0.010246  -0.073750   0.039014   0.387388   7.131490  -0.208600
     6  C   -0.005871   0.160594  -0.014183  -0.633407  -0.208600   9.860471
     7  C   -0.014163   0.053038  -0.101811  -0.245832  -0.014540  -1.184161
     8  O    0.000118  -0.002103   0.001483   0.043479  -0.009024  -0.150149
     9  C    0.006622  -0.064629   0.040089   0.091886  -0.041319  -0.131133
    10  C    0.003418   0.007914   0.013701  -0.055996   0.010284   0.100844
    11  O   -0.000091  -0.002834   0.002797  -0.009169   0.004177  -0.000069
    12  O    0.000040   0.001042  -0.001039   0.011560   0.001477  -0.034336
    13  C   -0.013189  -0.087175  -0.092163   0.029604   0.288661  -2.351320
    14  C   -0.001382  -0.011133   0.031111  -0.040260   0.011190   0.296413
    15  O    0.000533  -0.043669  -0.030986   0.263146  -0.059871  -0.277679
    16  C    0.110517   0.123045   0.858413  -0.690134  -0.011879  -0.408400
    17  C   -0.033172  -1.277894  -1.017300   0.244316  -0.033746   0.036132
    18  Cl   0.000316   0.081591   0.097462  -0.034715  -0.000296   0.000038
    19  C    0.033544   0.097923  -1.375171  -0.410023   0.012186  -0.045476
    20  C   -0.545911  -2.263311  -0.619837   0.326403  -0.040446   0.124854
    21  H    0.219035   0.000769  -0.059811  -0.033647   0.069370   0.019799
    22  H    0.000459   0.010512  -0.000521   0.015360  -0.034044   0.473099
    23  H    0.000332   0.005601  -0.003990   0.003847   0.016198  -0.069313
    24  H   -0.000007   0.000632  -0.000509   0.004658  -0.001359   0.022156
    25  H   -0.000010   0.000656  -0.000404  -0.002340  -0.002118   0.023390
    26  H    0.000041   0.002184  -0.003866   0.021547  -0.000910  -0.012095
    27  H   -0.000006   0.000301  -0.000383   0.001442   0.000168  -0.004456
    28  H    0.000005   0.000034  -0.001127  -0.025119   0.007289  -0.040681
    29  H    0.000131   0.000275   0.000229  -0.002019  -0.007334   0.057649
    30  H    0.000002   0.000347   0.003547  -0.000433   0.000237  -0.016092
    31  H    0.000006  -0.000673  -0.000960   0.000158   0.001225  -0.057328
    32  H   -0.000572   0.016394  -0.014318  -0.008491  -0.000536   0.002150
    33  H   -0.000682   0.034061  -0.010682  -0.000747  -0.000009   0.000075
    34  H    0.002543  -0.236666  -0.000690   0.008096   0.000276   0.000402
              7          8          9         10         11         12
     1  O   -0.014163   0.000118   0.006622   0.003418  -0.000091   0.000040
     2  C    0.053038  -0.002103  -0.064629   0.007914  -0.002834   0.001042
     3  C   -0.101811   0.001483   0.040089   0.013701   0.002797  -0.001039
     4  C   -0.245832   0.043479   0.091886  -0.055996  -0.009169   0.011560
     5  N   -0.014540  -0.009024  -0.041319   0.010284   0.004177   0.001477
     6  C   -1.184161  -0.150149  -0.131133   0.100844  -0.000069  -0.034336
     7  C    6.868932   0.225003  -0.206583   0.047315  -0.006612  -0.004200
     8  O    0.225003   8.180835   0.012828  -0.040618  -0.001593  -0.018627
     9  C   -0.206583   0.012828   5.910731  -0.017839   0.013244  -0.010061
    10  C    0.047315  -0.040618  -0.017839   4.872961   0.280740   0.372853
    11  O   -0.006612  -0.001593   0.013244   0.280740   7.949310  -0.085395
    12  O   -0.004200  -0.018627  -0.010061   0.372853  -0.085395   8.273429
    13  C    0.413095   0.060379   0.128501  -0.178285  -0.001374   0.015813
    14  C   -0.318933  -0.039680  -0.024709   0.008945  -0.000389   0.002826
    15  O    0.038829  -0.002122   0.005738  -0.000078   0.000017   0.000164
    16  C   -0.085812   0.000790   0.034954  -0.000452  -0.000089  -0.000232
    17  C   -0.005606   0.000023   0.003340   0.000389   0.000053  -0.000064
    18  Cl  -0.000087  -0.000001  -0.000020   0.000002   0.000000   0.000000
    19  C   -0.011545   0.000027   0.000901   0.000787  -0.000065   0.000012
    20  C    0.050942  -0.000290  -0.026504  -0.002180  -0.000258   0.000196
    21  H    0.001335  -0.000165  -0.003878  -0.001505  -0.000152  -0.000013
    22  H   -0.098594   0.002235  -0.011812   0.000692  -0.000862  -0.001213
    23  H    0.449712  -0.057157  -0.030930   0.007742  -0.000882  -0.001222
    24  H    0.036701   0.265948  -0.030838   0.013970  -0.000373   0.015974
    25  H   -0.038540  -0.005747   0.433088  -0.055436   0.002061  -0.004375
    26  H   -0.100378   0.008538   0.478341  -0.047317  -0.006830   0.003761
    27  H    0.003064   0.000235  -0.016383   0.001903   0.274383   0.021468
    28  H    0.004126  -0.003958  -0.001519  -0.000013   0.000004   0.000300
    29  H   -0.028435   0.000423  -0.004148   0.000031   0.000004   0.000020
    30  H    0.014801   0.000346   0.000611  -0.000001   0.000000  -0.000009
    31  H    0.019151  -0.001953   0.004817  -0.001067   0.000000   0.000038
    32  H    0.000061  -0.000001  -0.000029  -0.000012   0.000000   0.000000
    33  H    0.000002   0.000000  -0.000001   0.000000   0.000000   0.000000
    34  H    0.000014   0.000000  -0.000023  -0.000010   0.000000   0.000000
             13         14         15         16         17         18
     1  O   -0.013189  -0.001382   0.000533   0.110517  -0.033172   0.000316
     2  C   -0.087175  -0.011133  -0.043669   0.123045  -1.277894   0.081591
     3  C   -0.092163   0.031111  -0.030986   0.858413  -1.017300   0.097462
     4  C    0.029604  -0.040260   0.263146  -0.690134   0.244316  -0.034715
     5  N    0.288661   0.011190  -0.059871  -0.011879  -0.033746  -0.000296
     6  C   -2.351320   0.296413  -0.277679  -0.408400   0.036132   0.000038
     7  C    0.413095  -0.318933   0.038829  -0.085812  -0.005606  -0.000087
     8  O    0.060379  -0.039680  -0.002122   0.000790   0.000023  -0.000001
     9  C    0.128501  -0.024709   0.005738   0.034954   0.003340  -0.000020
    10  C   -0.178285   0.008945  -0.000078  -0.000452   0.000389   0.000002
    11  O   -0.001374  -0.000389   0.000017  -0.000089   0.000053   0.000000
    12  O    0.015813   0.002826   0.000164  -0.000232  -0.000064   0.000000
    13  C    7.353632  -0.127446   0.366832   0.129143  -0.027627   0.001011
    14  C   -0.127446   5.623234  -0.137048  -0.011718  -0.014376   0.000055
    15  O    0.366832  -0.137048   8.352336  -0.016869   0.044561  -0.000104
    16  C    0.129143  -0.011718  -0.016869   8.348130   0.380731   0.208608
    17  C   -0.027627  -0.014376   0.044561   0.380731   8.976334  -0.721377
    18  Cl   0.001011   0.000055  -0.000104   0.208608  -0.721377  17.093929
    19  C   -0.003113   0.001893  -0.005138  -0.537384  -1.655890   0.340211
    20  C   -0.012681  -0.016732   0.011553  -1.914044   0.150864   0.031493
    21  H    0.007161   0.000426   0.002754  -0.033140   0.004256  -0.000022
    22  H   -0.047994   0.019232  -0.001405  -0.003776  -0.000768  -0.000002
    23  H   -0.003298  -0.001413  -0.002458  -0.001169  -0.000190   0.000000
    24  H   -0.022896   0.002363  -0.000324  -0.000126  -0.000018   0.000000
    25  H    0.001120   0.000632   0.000038  -0.000148  -0.000004   0.000000
    26  H   -0.001602   0.000011  -0.000067   0.000523  -0.000118   0.000000
    27  H   -0.000768   0.000062  -0.000001  -0.000016  -0.000003   0.000000
    28  H    0.493088  -0.062292  -0.038792   0.001262   0.000921   0.000012
    29  H   -0.061150   0.436811  -0.008196  -0.004533  -0.000638  -0.000006
    30  H   -0.015342   0.390246   0.000773  -0.001742  -0.001271  -0.000003
    31  H    0.001954   0.398559   0.008024   0.001293   0.000127   0.000000
    32  H    0.001018  -0.000703   0.007069   0.399104  -0.076047  -0.008697
    33  H   -0.000020  -0.000003  -0.000009   0.017284  -0.072327  -0.004078
    34  H   -0.000080   0.000005   0.000005  -0.030740   0.060948  -0.001112
             19         20         21         22         23         24
     1  O    0.033544  -0.545911   0.219035   0.000459   0.000332  -0.000007
     2  C    0.097923  -2.263311   0.000769   0.010512   0.005601   0.000632
     3  C   -1.375171  -0.619837  -0.059811  -0.000521  -0.003990  -0.000509
     4  C   -0.410023   0.326403  -0.033647   0.015360   0.003847   0.004658
     5  N    0.012186  -0.040446   0.069370  -0.034044   0.016198  -0.001359
     6  C   -0.045476   0.124854   0.019799   0.473099  -0.069313   0.022156
     7  C   -0.011545   0.050942   0.001335  -0.098594   0.449712   0.036701
     8  O    0.000027  -0.000290  -0.000165   0.002235  -0.057157   0.265948
     9  C    0.000901  -0.026504  -0.003878  -0.011812  -0.030930  -0.030838
    10  C    0.000787  -0.002180  -0.001505   0.000692   0.007742   0.013970
    11  O   -0.000065  -0.000258  -0.000152  -0.000862  -0.000882  -0.000373
    12  O    0.000012   0.000196  -0.000013  -0.001213  -0.001222   0.015974
    13  C   -0.003113  -0.012681   0.007161  -0.047994  -0.003298  -0.022896
    14  C    0.001893  -0.016732   0.000426   0.019232  -0.001413   0.002363
    15  O   -0.005138   0.011553   0.002754  -0.001405  -0.002458  -0.000324
    16  C   -0.537384  -1.914044  -0.033140  -0.003776  -0.001169  -0.000126
    17  C   -1.655890   0.150864   0.004256  -0.000768  -0.000190  -0.000018
    18  Cl   0.340211   0.031493  -0.000022  -0.000002   0.000000   0.000000
    19  C   10.212572  -0.338485  -0.006941   0.000251   0.000093   0.000004
    20  C   -0.338485  10.507597   0.093756   0.001177   0.000903   0.000026
    21  H   -0.006941   0.093756   0.259227  -0.000421  -0.000140   0.000015
    22  H    0.000251   0.001177  -0.000421   0.551757   0.007038   0.001054
    23  H    0.000093   0.000903  -0.000140   0.007038   0.562183   0.007692
    24  H    0.000004   0.000026   0.000015   0.001054   0.007692   0.397314
    25  H    0.000000   0.000082   0.000035  -0.000383  -0.008735  -0.000273
    26  H    0.000133   0.000505   0.000983   0.000827  -0.001302  -0.000449
    27  H    0.000003   0.000074   0.000015   0.000092   0.000037   0.000087
    28  H   -0.000112   0.000255  -0.000006  -0.011125  -0.000371   0.000055
    29  H   -0.000249   0.000073  -0.000079  -0.000350  -0.001326  -0.000073
    30  H   -0.000020  -0.000104  -0.000002   0.000003   0.000222  -0.000014
    31  H   -0.000011  -0.000039  -0.000009  -0.000303  -0.002244  -0.000279
    32  H    0.017389   0.000230   0.000076  -0.000012  -0.000003   0.000000
    33  H    0.421608  -0.047890   0.000019   0.000000   0.000000   0.000000
    34  H   -0.097116   0.645191   0.000923   0.000000   0.000000   0.000000
             25         26         27         28         29         30
     1  O   -0.000010   0.000041  -0.000006   0.000005   0.000131   0.000002
     2  C    0.000656   0.002184   0.000301   0.000034   0.000275   0.000347
     3  C   -0.000404  -0.003866  -0.000383  -0.001127   0.000229   0.003547
     4  C   -0.002340   0.021547   0.001442  -0.025119  -0.002019  -0.000433
     5  N   -0.002118  -0.000910   0.000168   0.007289  -0.007334   0.000237
     6  C    0.023390  -0.012095  -0.004456  -0.040681   0.057649  -0.016092
     7  C   -0.038540  -0.100378   0.003064   0.004126  -0.028435   0.014801
     8  O   -0.005747   0.008538   0.000235  -0.003958   0.000423   0.000346
     9  C    0.433088   0.478341  -0.016383  -0.001519  -0.004148   0.000611
    10  C   -0.055436  -0.047317   0.001903  -0.000013   0.000031  -0.000001
    11  O    0.002061  -0.006830   0.274383   0.000004   0.000004   0.000000
    12  O   -0.004375   0.003761   0.021468   0.000300   0.000020  -0.000009
    13  C    0.001120  -0.001602  -0.000768   0.493088  -0.061150  -0.015342
    14  C    0.000632   0.000011   0.000062  -0.062292   0.436811   0.390246
    15  O    0.000038  -0.000067  -0.000001  -0.038792  -0.008196   0.000773
    16  C   -0.000148   0.000523  -0.000016   0.001262  -0.004533  -0.001742
    17  C   -0.000004  -0.000118  -0.000003   0.000921  -0.000638  -0.001271
    18  Cl   0.000000   0.000000   0.000000   0.000012  -0.000006  -0.000003
    19  C    0.000000   0.000133   0.000003  -0.000112  -0.000249  -0.000020
    20  C    0.000082   0.000505   0.000074   0.000255   0.000073  -0.000104
    21  H    0.000035   0.000983   0.000015  -0.000006  -0.000079  -0.000002
    22  H   -0.000383   0.000827   0.000092  -0.011125  -0.000350   0.000003
    23  H   -0.008735  -0.001302   0.000037  -0.000371  -0.001326   0.000222
    24  H   -0.000273  -0.000449   0.000087   0.000055  -0.000073  -0.000014
    25  H    0.502313  -0.026717  -0.000479   0.000015   0.000027  -0.000003
    26  H   -0.026717   0.499676   0.000629   0.000028   0.000051  -0.000002
    27  H   -0.000479   0.000629   0.369576   0.000000   0.000000   0.000000
    28  H    0.000015   0.000028   0.000000   0.545882   0.005382  -0.006410
    29  H    0.000027   0.000051   0.000000   0.005382   0.514395  -0.027703
    30  H   -0.000003  -0.000002   0.000000  -0.006410  -0.027703   0.528865
    31  H   -0.000024   0.000011   0.000000  -0.002131  -0.027250  -0.022012
    32  H    0.000000   0.000000   0.000000   0.000024   0.000009  -0.000002
    33  H    0.000000   0.000000   0.000000   0.000000   0.000000   0.000000
    34  H    0.000000   0.000000   0.000000   0.000000   0.000000   0.000000
             31         32         33         34
     1  O    0.000006  -0.000572  -0.000682   0.002543
     2  C   -0.000673   0.016394   0.034061  -0.236666
     3  C   -0.000960  -0.014318  -0.010682  -0.000690
     4  C    0.000158  -0.008491  -0.000747   0.008096
     5  N    0.001225  -0.000536  -0.000009   0.000276
     6  C   -0.057328   0.002150   0.000075   0.000402
     7  C    0.019151   0.000061   0.000002   0.000014
     8  O   -0.001953  -0.000001   0.000000   0.000000
     9  C    0.004817  -0.000029  -0.000001  -0.000023
    10  C   -0.001067  -0.000012   0.000000  -0.000010
    11  O    0.000000   0.000000   0.000000   0.000000
    12  O    0.000038   0.000000   0.000000   0.000000
    13  C    0.001954   0.001018  -0.000020  -0.000080
    14  C    0.398559  -0.000703  -0.000003   0.000005
    15  O    0.008024   0.007069  -0.000009   0.000005
    16  C    0.001293   0.399104   0.017284  -0.030740
    17  C    0.000127  -0.076047  -0.072327   0.060948
    18  Cl   0.000000  -0.008697  -0.004078  -0.001112
    19  C   -0.000011   0.017389   0.421608  -0.097116
    20  C   -0.000039   0.000230  -0.047890   0.645191
    21  H   -0.000009   0.000076   0.000019   0.000923
    22  H   -0.000303  -0.000012   0.000000   0.000000
    23  H   -0.002244  -0.000003   0.000000   0.000000
    24  H   -0.000279   0.000000   0.000000   0.000000
    25  H   -0.000024   0.000000   0.000000   0.000000
    26  H    0.000011   0.000000   0.000000   0.000000
    27  H    0.000000   0.000000   0.000000   0.000000
    28  H   -0.002131   0.000024   0.000000   0.000000
    29  H   -0.027250   0.000009   0.000000   0.000000
    30  H   -0.022012  -0.000002   0.000000   0.000000
    31  H    0.516637  -0.000009   0.000000   0.000000
    32  H   -0.000009   0.498602  -0.000111   0.000050
    33  H    0.000000  -0.000111   0.517924  -0.004748
    34  H    0.000000   0.000050  -0.004748   0.518171
 Mulliken atomic charges:
              1
     1  O   -0.638747
     2  C   -0.017869
     3  C    0.149047
     4  C    0.617017
     5  N   -0.451096
     6  C    0.466682
     7  C    0.239708
     8  O   -0.469501
     9  C   -0.543330
    10  C    0.656319
    11  O   -0.409753
    12  O   -0.560189
    13  C   -0.243490
    14  C   -0.415794
    15  O   -0.477557
    16  C   -0.861394
    17  C    1.035443
    18  Cl  -0.084207
    19  C   -0.652798
    20  C   -0.117463
    21  H    0.459979
    22  H    0.129798
    23  H    0.124541
    24  H    0.288889
    25  H    0.182278
    26  H    0.183863
    27  H    0.348958
    28  H    0.134973
    29  H    0.157978
    30  H    0.151164
    31  H    0.164292
    32  H    0.167366
    33  H    0.150332
    34  H    0.134560
 Sum of Mulliken atomic charges =   0.00000
 Mulliken charges with hydrogens summed into heavy atoms:
              1
     1  O   -0.178768
     2  C   -0.017869
     3  C    0.149047
     4  C    0.617017
     5  N   -0.451096
     6  C    0.596480
     7  C    0.364250
     8  O   -0.180612
     9  C   -0.177188
    10  C    0.656319
    11  O   -0.060795
    12  O   -0.560189
    13  C   -0.108517
    14  C    0.057640
    15  O   -0.477557
    16  C   -0.694028
    17  C    1.035443
    18  Cl  -0.084207
    19  C   -0.502466
    20  C    0.017097
 Sum of Mulliken charges with hydrogens summed into heavy atoms =   0.00000
 Electronic spatial extent (au):  <R**2>=           7993.9615
 Charge=              0.0000 electrons
 Dipole moment (field-independent basis, Debye):
    X=             -2.7394    Y=             -0.9668    Z=              0.3731  Tot=              2.9289
 Quadrupole moment (field-independent basis, Debye-Ang):
   XX=           -129.5080   YY=           -120.6154   ZZ=           -124.0579
   XY=              4.9787   XZ=              2.3243   YZ=              1.7701
 Traceless Quadrupole moment (field-independent basis, Debye-Ang):
   XX=             -4.7809   YY=              4.1117   ZZ=              0.6692
   XY=              4.9787   XZ=              2.3243   YZ=              1.7701
 Octapole moment (field-independent basis, Debye-Ang**2):
  XXX=            -89.7742  YYY=             -2.2670  ZZZ=             -1.6397  XYY=            -14.2329
  XXY=           -108.1722  XXZ=              4.1904  XZZ=            -25.1222  YZZ=             -2.0762
  YYZ=            -22.1059  XYZ=            -12.7309
 Hexadecapole moment (field-independent basis, Debye-Ang**3):
 XXXX=          -8274.1760 YYYY=          -1844.8306 ZZZZ=           -406.2461 XXXY=            222.9818
 XXXZ=            105.9754 YYYX=             94.2085 YYYZ=             31.2050 ZZZX=             -8.9674
 ZZZY=             10.0646 XXYY=          -1495.3042 XXZZ=          -1443.7570 YYZZ=           -362.5199
 XXYZ=             28.2852 YYXZ=            117.3784 ZZXY=             49.3834
 N-N= 1.688305865817D+03 E-N=-6.656426934516D+03  KE= 1.390578917793D+03
 1\1\GINC-PROD2-0053\SP\RB3LYP\6-311+G(2d,p)\C13H14Cl1N1O5\YUHENG\26-Ma
 r-2019\0\\# b3lyp/6-311+G(2d,p) nmr guess=read geom=check integral(ult
 rafinegrid) scrf=(iefpcm,read,solvent=methanol)\\Candidate Structure: 
 1b, Conformer: 7, NMR calculation with methanol solvation\\0,1\O,0,0.6
 722024889,-2.356463362,0.5776788672\C,0,1.7621789884,-1.6080843312,0.3
 447894624\C,0,1.6889084748,-0.2452537214,-0.0114546364\C,0,0.379900258
 4,0.392582577,-0.1454846582\N,0,-0.7392546268,-0.1977885123,0.06768032
 6\C,0,-1.795537702,0.7640554393,-0.2706357949\C,0,-2.9589057322,0.7157
 101299,0.72249704\O,0,-3.9312676807,1.686617051,0.3796781485\C,0,-3.55
 8841976,-0.6852663877,0.8534481752\C,0,-4.1864180989,-1.1951302668,-0.
 4187240103\O,0,-4.3841380054,-2.512480261,-0.3974191634\O,0,-4.5082495
 324,-0.4960091533,-1.3609354643\C,0,-1.0424094002,2.1167531728,-0.3379
 781516\C,0,-1.0890100013,2.9793539433,0.9092277391\O,0,0.3392030305,1.
 6808045349,-0.5302262032\C,0,2.8612466731,0.4873742799,-0.2400293894\C
 ,0,4.0887839944,-0.1365464785,-0.1147706308\Cl,0,5.554608672,0.7753622
 497,-0.3978482878\C,0,4.1768752724,-1.4860153099,0.2364448691\C,0,3.01
 94654166,-2.2139760178,0.4639343672\H,0,-0.1347521567,-1.7925049369,0.
 4497366629\H,0,-2.1835974212,0.5081831273,-1.2667180639\H,0,-2.5871352
 986,0.9973276006,1.7133634092\H,0,-4.3417274175,1.4178128109,-0.459656
 719\H,0,-4.35185477,-0.665507904,1.6111940008\H,0,-2.8054845923,-1.401
 0956641,1.1927176895\H,0,-4.830544218,-2.7853157525,-1.2275180498\H,0,
 -1.3152990049,2.6898649793,-1.2255751146\H,0,-0.7412103607,2.418872074
 8,1.7829263303\H,0,-0.4410473257,3.8485115689,0.7762355283\H,0,-2.1108
 000339,3.321821513,1.0893658752\H,0,2.7938781203,1.5362692311,-0.51257
 65172\H,0,5.1495735282,-1.960357876,0.3304302879\H,0,3.0670165022,-3.2
 636120815,0.7379375249\\Version=EM64L-G09RevB.01\State=1-A\HF=-1395.25
 80654\RMSD=8.653e-09\Dipole=-1.0777604,-0.3803683,0.1467856\Quadrupole
 =-3.5544929,3.0569818,0.4975111,3.7015491,1.7280379,1.3160569\PG=C01 [
 X(C13H14Cl1N1O5)]\\@


  ON THE CHOICE OF THE CORRECT LANGUAGE -
 I SPEAK SPANISH TO GOD, ITALIAN TO WOMEN,
 FRENCH TO MEN, AND GERMAN TO MY HORSE.
          -- CHARLES V
 Job cpu time:  0 days  2 hours 28 minutes 58.4 seconds.
 File lengths (MBytes):  RWF=    328 Int=      0 D2E=      0 Chk=     29 Scr=      1
 Normal termination of Gaussian 09 at Tue Mar 26 03:06:25 2019.
