 Entering Gaussian System, Link 0=g09
 Initial command:
 /home/yuheng/proj/yuheng/g09/l1.exe /home/yuheng/proj/yuheng/g09_scratch/Gau-24635.inp -scrdir=/home/yuheng/proj/yuheng/g09_scratch/
 Entering Link 1 = /home/yuheng/proj/yuheng/g09/l1.exe PID=     24636.
  
 Copyright (c) 1988,1990,1992,1993,1995,1998,2003,2009,2010,
            Gaussian, Inc.  All Rights Reserved.
  
 This is part of the Gaussian(R) 09 program.  It is based on
 the Gaussian(R) 03 system (copyright 2003, Gaussian, Inc.),
 the Gaussian(R) 98 system (copyright 1998, Gaussian, Inc.),
 the Gaussian(R) 94 system (copyright 1995, Gaussian, Inc.),
 the Gaussian 92(TM) system (copyright 1992, Gaussian, Inc.),
 the Gaussian 90(TM) system (copyright 1990, Gaussian, Inc.),
 the Gaussian 88(TM) system (copyright 1988, Gaussian, Inc.),
 the Gaussian 86(TM) system (copyright 1986, Carnegie Mellon
 University), and the Gaussian 82(TM) system (copyright 1983,
 Carnegie Mellon University). Gaussian is a federally registered
 trademark of Gaussian, Inc.
  
 This software contains proprietary and confidential information,
 including trade secrets, belonging to Gaussian, Inc.
  
 This software is provided under written license and may be
 used, copied, transmitted, or stored only in accord with that
 written license.
  
 The following legend is applicable only to US Government
 contracts under FAR:
  
                    RESTRICTED RIGHTS LEGEND
  
 Use, reproduction and disclosure by the US Government is
 subject to restrictions as set forth in subparagraphs (a)
 and (c) of the Commercial Computer Software - Restricted
 Rights clause in FAR 52.227-19.
  
 Gaussian, Inc.
 340 Quinnipiac St., Bldg. 40, Wallingford CT 06492
  
  
 ---------------------------------------------------------------
 Warning -- This program may not be used in any manner that
 competes with the business of Gaussian, Inc. or will provide
 assistance to any competitor of Gaussian, Inc.  The licensee
 of this program is prohibited from giving any competitor of
 Gaussian, Inc. access to this program.  By using this program,
 the user acknowledges that Gaussian, Inc. is engaged in the
 business of creating and licensing software in the field of
 computational chemistry and represents and warrants to the
 licensee that it is not a competitor of Gaussian, Inc. and that
 it will not use this program in any manner prohibited above.
 ---------------------------------------------------------------
  

 Cite this work as:
 Gaussian 09, Revision B.01,
 M. J. Frisch, G. W. Trucks, H. B. Schlegel, G. E. Scuseria, 
 M. A. Robb, J. R. Cheeseman, G. Scalmani, V. Barone, B. Mennucci, 
 G. A. Petersson, H. Nakatsuji, M. Caricato, X. Li, H. P. Hratchian, 
 A. F. Izmaylov, J. Bloino, G. Zheng, J. L. Sonnenberg, M. Hada, 
 M. Ehara, K. Toyota, R. Fukuda, J. Hasegawa, M. Ishida, T. Nakajima, 
 Y. Honda, O. Kitao, H. Nakai, T. Vreven, J. A. Montgomery, Jr., 
 J. E. Peralta, F. Ogliaro, M. Bearpark, J. J. Heyd, E. Brothers, 
 K. N. Kudin, V. N. Staroverov, T. Keith, R. Kobayashi, J. Normand, 
 K. Raghavachari, A. Rendell, J. C. Burant, S. S. Iyengar, J. Tomasi, 
 M. Cossi, N. Rega, J. M. Millam, M. Klene, J. E. Knox, J. B. Cross, 
 V. Bakken, C. Adamo, J. Jaramillo, R. Gomperts, R. E. Stratmann, 
 O. Yazyev, A. J. Austin, R. Cammi, C. Pomelli, J. W. Ochterski, 
 R. L. Martin, K. Morokuma, V. G. Zakrzewski, G. A. Voth, 
 P. Salvador, J. J. Dannenberg, S. Dapprich, A. D. Daniels, 
 O. Farkas, J. B. Foresman, J. V. Ortiz, J. Cioslowski, 
 and D. J. Fox, Gaussian, Inc., Wallingford CT, 2010.
 
 ******************************************
 Gaussian 09:  EM64L-G09RevB.01 12-Aug-2010
                26-Mar-2019 
 ******************************************
 %mem=16gb
 %nprocshared=20
 Will use up to   20 processors via shared memory.
 %chk=1b-conf-11.chk
 ----------------------------------------------------------------------
 # b3lyp/6-311+G(2d,p) nmr guess=read geom=check integral(ultrafinegrid
 ) scrf=(iefpcm,read,solvent=methanol)
 ----------------------------------------------------------------------
 1/29=2,38=1,40=2/1;
 2/12=2,40=1/2;
 3/5=4,6=6,7=112,11=2,14=-4,16=1,25=1,30=1,70=2203,72=3,74=-5,75=-5,116=-2/1,2,8,3;
 4/5=1/1;
 5/5=2,38=6,53=3/2;
 8/6=1,10=90,11=11/1;
 10/13=100,45=16/2;
 6/7=2,8=2,9=2,10=2,28=1/1;
 99/9=1/99;
 ----------------------------------------------------------------------
 Candidate Structure: 1b, Conformer: 11, NMR calculation with methanol 
 solvation
 ----------------------------------------------------------------------
 Redundant internal coordinates taken from checkpoint file:
 1b-conf-11.chk
 Charge =  0 Multiplicity = 1
 O,0,-0.6713063583,2.8095770139,-0.1312898562
 C,0,-1.5489204939,1.793327528,-0.1111674359
 C,0,-1.1901151924,0.4734407924,-0.4503331425
 C,0,0.1934206893,0.1819721003,-0.8139882093
 N,0,1.1176466127,1.0681782686,-0.9207590481
 C,0,2.3704557417,0.3409049284,-1.1766770406
 C,0,3.3163746146,0.4195863943,0.0473744958
 O,0,4.1507424601,1.5600235443,-0.0701676936
 C,0,2.6283134416,0.4855083432,1.4245303983
 C,0,1.8539680928,-0.7464990023,1.822794113
 O,0,0.5501900421,-0.5121847053,1.9952261204
 O,0,2.3398952626,-1.8559594871,1.9095789158
 C,0,1.8564584501,-1.0397930565,-1.6418937973
 C,0,2.6491710855,-2.2840353005,-1.3202354011
 O,0,0.5320377507,-1.1021189413,-1.041922004
 C,0,-2.1440644374,-0.5510489835,-0.4078635643
 C,0,-3.4413211016,-0.2555610215,-0.0319275117
 Cl,0,-4.6362826797,-1.5328818185,0.0245599373
 C,0,-3.8140071676,1.0483808114,0.3062786838
 C,0,-2.8711621623,2.0641479275,0.2660908061
 H,0,0.2122755174,2.461586919,-0.4174073256
 H,0,2.9146503735,0.8165974129,-1.9983377359
 H,0,3.9957246878,-0.439340382,0.0193148843
 H,0,3.594460377,2.3547940329,-0.1489172273
 H,0,1.9804704973,1.3636524992,1.4681593056
 H,0,3.4297786415,0.5986363553,2.1602294227
 H,0,0.0982734951,-1.3555868772,2.210494812
 H,0,1.6822556689,-0.981675949,-2.7234821784
 H,0,2.7860078353,-2.4148846956,-0.246263418
 H,0,2.1365628172,-3.1612879318,-1.7210263251
 H,0,3.6306680894,-2.2188812871,-1.7997586114
 H,0,-1.8546783766,-1.5645792949,-0.6681885918
 H,0,-4.8379620005,1.2621949392,0.5982342012
 H,0,-3.1391109775,3.0838291292,0.5254449657
 Recover connectivity data from disk.
                          Input orientation:                          
 ---------------------------------------------------------------------
 Center     Atomic      Atomic             Coordinates (Angstroms)
 Number     Number       Type             X           Y           Z
 ---------------------------------------------------------------------
      1          8           0       -0.671306    2.809577   -0.131290
      2          6           0       -1.548920    1.793328   -0.111167
      3          6           0       -1.190115    0.473441   -0.450333
      4          6           0        0.193421    0.181972   -0.813988
      5          7           0        1.117647    1.068178   -0.920759
      6          6           0        2.370456    0.340905   -1.176677
      7          6           0        3.316375    0.419586    0.047374
      8          8           0        4.150742    1.560024   -0.070168
      9          6           0        2.628313    0.485508    1.424530
     10          6           0        1.853968   -0.746499    1.822794
     11          8           0        0.550190   -0.512185    1.995226
     12          8           0        2.339895   -1.855959    1.909579
     13          6           0        1.856458   -1.039793   -1.641894
     14          6           0        2.649171   -2.284035   -1.320235
     15          8           0        0.532038   -1.102119   -1.041922
     16          6           0       -2.144064   -0.551049   -0.407864
     17          6           0       -3.441321   -0.255561   -0.031928
     18         17           0       -4.636283   -1.532882    0.024560
     19          6           0       -3.814007    1.048381    0.306279
     20          6           0       -2.871162    2.064148    0.266091
     21          1           0        0.212276    2.461587   -0.417407
     22          1           0        2.914650    0.816597   -1.998338
     23          1           0        3.995725   -0.439340    0.019315
     24          1           0        3.594460    2.354794   -0.148917
     25          1           0        1.980470    1.363652    1.468159
     26          1           0        3.429779    0.598636    2.160229
     27          1           0        0.098273   -1.355587    2.210495
     28          1           0        1.682256   -0.981676   -2.723482
     29          1           0        2.786008   -2.414885   -0.246263
     30          1           0        2.136563   -3.161288   -1.721026
     31          1           0        3.630668   -2.218881   -1.799759
     32          1           0       -1.854678   -1.564579   -0.668189
     33          1           0       -4.837962    1.262195    0.598234
     34          1           0       -3.139111    3.083829    0.525445
 ---------------------------------------------------------------------
                    Distance matrix (angstroms):
                    1          2          3          4          5
     1  O    0.000000
     2  C    1.342898   0.000000
     3  C    2.414225   1.409211   0.000000
     4  C    2.849235   2.475111   1.459921   0.000000
     5  N    2.618412   2.879559   2.429152   1.284895   0.000000
     6  C    4.054564   4.313508   3.636318   2.212755   1.471037
     7  C    4.652481   5.058003   4.534210   3.248268   2.488445
     8  O    4.981694   5.704583   5.463511   4.255901   3.188273
     9  C    4.325432   4.638754   4.253899   3.321416   2.849912
    10  C    4.779240   4.665895   3.990213   3.251476   3.370802
    11  O    4.128950   3.762784   3.159253   2.915617   3.364896
    12  O    5.916055   5.702947   4.843167   4.022230   4.249151
    13  C    4.846563   4.686822   3.604345   2.223473   2.347216
    14  C    6.195486   5.975844   4.806300   3.516844   3.707086
    15  O    4.192690   3.685146   2.407940   1.347407   2.251179
    16  C    3.679581   2.436868   1.400501   2.483162   3.677461
    17  C    4.132545   2.790234   2.403005   3.743581   4.829751
    18  Cl   5.882370   4.540253   4.015834   5.193257   6.384892
    19  C    3.629028   2.420707   2.790668   4.250311   5.082049
    20  C    2.356468   1.401424   2.422712   3.755106   4.279155
    21  H    0.991805   1.908446   2.433210   2.313931   1.736274
    22  H    4.507430   4.943569   4.400361   3.034885   2.110377
    23  H    5.688526   5.978706   5.286461   3.941819   3.382260
    24  H    4.289977   5.174073   5.150000   4.090299   2.895812
    25  H    3.417727   3.890436   3.811260   3.130194   2.557088
    26  H    5.192130   5.601248   5.307931   4.415155   3.880582
    27  H    4.839917   4.244882   3.476391   3.394207   4.088827
    28  H    5.160651   4.996532   3.941457   2.686424   2.787561
    29  H    6.265879   6.043087   4.918701   3.713150   3.920472
    30  H    6.786945   6.381430   5.088487   3.971890   4.423460
    31  H    6.824673   6.765892   5.684145   4.307030   4.229974
    32  H    4.563099   3.417499   2.154677   2.695628   3.978683
    33  H    4.504178   3.406339   3.876650   5.336297   6.149330
    34  H    2.568380   2.144615   3.400714   4.617426   4.926900
                    6          7          8          9         10
     6  C    0.000000
     7  C    1.548953   0.000000
     8  O    2.424878   1.417950   0.000000
     9  C    2.617954   1.540887   2.388827   0.000000
    10  C    3.232032   2.578857   3.765438   1.508664   0.000000
    11  O    3.755276   3.509145   4.639383   2.374801   1.335842
    12  O    3.788420   3.098294   4.343674   2.408512   1.214314
    13  C    1.544975   2.667353   3.806982   3.510735   3.477081
    14  C    2.643596   3.102433   4.312096   3.899301   3.588175
    15  O    2.340995   3.354800   4.596339   3.605318   3.174990
    16  C    4.665571   5.564690   6.647952   5.216101   4.582390
    17  C    5.953400   6.791801   7.806231   6.285771   5.632149
    18  Cl   7.351764   8.188859   9.315946   7.668649   6.780516
    19  C    6.399005   7.162734   7.990039   6.562835   6.135744
    20  C    5.703131   6.406093   7.048004   5.837664   5.714011
    21  H    3.119539   3.744492   4.055233   3.624205   4.243286
    22  H    1.094330   2.122248   2.407996   3.450744   4.262554
    23  H    2.163488   1.095472   2.007360   2.167900   2.816737
    24  H    2.571036   1.964915   0.973299   2.627433   4.066322
    25  H    2.862387   2.166686   2.667413   1.092127   2.143480
    26  H    3.510489   2.123458   2.533520   1.093800   2.099150
    27  H    4.417446   4.264564   5.488598   3.226217   1.898358
    28  H    2.148359   3.508779   4.426482   4.500407   4.555592
    29  H    2.938151   2.898575   4.206353   3.350925   2.816595
    30  H    3.551954   4.164356   5.391942   4.841019   4.297642
    31  H    2.920423   3.236077   4.188327   4.326023   4.295051
    32  H    4.662745   5.584687   6.796017   5.355329   4.541840
    33  H    7.480667   8.216243   9.018441   7.551905   7.093400
    34  H    6.385623   7.000002   7.471191   6.389273   6.425369
                   11         12         13         14         15
    11  O    0.000000
    12  O    2.239668   0.000000
    13  C    3.900429   3.675976   0.000000
    14  C    4.305515   3.272705   1.509966   0.000000
    15  O    3.093965   3.542313   1.455315   2.440622   0.000000
    16  C    3.610451   5.213370   4.214960   5.177912   2.804858
    17  C    4.484124   6.305013   5.592270   6.547407   4.186207
    18  Cl   5.641352   7.233584   6.721301   7.446512   5.294759
    19  C    4.932963   6.991157   6.349018   7.451390   5.032932
    20  C    4.618771   6.724836   5.968689   7.203972   4.828863
    21  H    3.844256   5.346292   4.057384   5.410590   3.632116
    22  H    4.827514   4.769142   2.166335   3.185000   3.205159
    23  H    3.972561   2.884732   2.774278   2.647735   3.682747
    24  H    4.699415   4.851988   4.095467   4.876915   4.703843
    25  H    2.417078   3.269547   3.932475   4.639820   3.805062
    26  H    3.090822   2.697353   4.428987   4.586151   4.641470
    27  H    0.980763   2.316418   4.246391   4.453667   3.290990
    28  H    4.875264   4.760474   1.097068   2.144800   2.040870
    29  H    3.693701   2.271359   2.168576   1.090533   2.727051
    30  H    4.831652   3.863486   2.141369   1.092233   2.697380
    31  H    5.177264   3.944235   2.136116   1.094314   3.379791
    32  H    3.739613   4.931961   3.872472   4.607325   2.459667
    33  H    5.842276   7.934995   7.425132   8.503731   6.092371
    34  H    5.357473   7.505788   6.830617   8.107078   5.784128
                   16         17         18         19         20
    16  C    0.000000
    17  C    1.382576   0.000000
    18  Cl   2.713326   1.750049   0.000000
    19  C    2.420100   1.397692   2.723678   0.000000
    20  C    2.796809   2.407269   4.014052   1.386490   0.000000
    21  H    3.824710   4.569492   6.297589   4.328028   3.183193
    22  H    5.476373   6.739040   8.162644   7.116166   6.337164
    23  H    6.155645   7.439493   8.701001   7.955349   7.313172
    24  H    6.437518   7.505322   9.104353   7.536532   6.485444
    25  H    4.919078   5.853882   7.365821   5.918221   5.047178
    26  H    6.243765   7.262728   8.611957   7.490783   6.740723
    27  H    3.539938   4.332118   5.217832   4.971020   4.928777
    28  H    4.493134   5.832902   6.912271   6.596172   6.240850
    29  H    5.273103   6.594562   7.479416   7.473935   7.233797
    30  H    5.182809   6.512226   7.181240   7.565749   7.505406
    31  H    6.169811   7.549363   8.493598   8.398427   8.055177
    32  H    1.085706   2.153089   2.866745   3.408242   3.882496
    33  H    3.399584   2.156686   2.860460   1.086019   2.149825
    34  H    3.882463   3.399047   4.879183   2.155590   1.085731
                   21         22         23         24         25
    21  H    0.000000
    22  H    3.536688   0.000000
    23  H    4.787546   2.610943   0.000000
    24  H    3.394505   2.499709   2.827809   0.000000
    25  H    2.808440   3.631606   3.067765   2.490434   0.000000
    26  H    4.524060   4.196015   2.445650   2.905747   1.778962
    27  H    4.635696   5.510411   4.564088   5.617568   3.389394
    28  H    4.397145   2.297481   3.628940   4.627844   4.812417
    29  H    5.516644   3.678150   2.331678   4.838689   4.226758
    30  H    6.084326   4.062745   3.727502   5.918121   5.538082
    31  H    5.958447   3.125099   2.570809   4.862622   5.122205
    32  H    4.532682   5.494160   5.997169   6.732328   5.277015
    33  H    5.289137   8.188024   9.014676   8.535675   6.874452
    34  H    3.536658   6.939585   7.973379   6.806412   5.482502
                   26         27         28         29         30
    26  H    0.000000
    27  H    3.862699   0.000000
    28  H    5.422348   5.195473   0.000000
    29  H    3.909854   3.792320   3.067404   0.000000
    30  H    5.556400   4.782472   2.441725   1.775900   0.000000
    31  H    4.864182   5.413430   2.486012   1.779105   1.768242
    32  H    6.372200   3.484898   4.132059   4.736772   4.425828
    33  H    8.440123   5.815375   7.653888   8.506410   8.578471
    34  H    7.211034   5.747040   7.094324   8.120248   8.478258
                   31         32         33         34
    31  H    0.000000
    32  H    5.638935   0.000000
    33  H    9.464986   4.300519   0.000000
    34  H    8.908155   4.968121   2.491936   0.000000
 Stoichiometry    C13H14ClNO5
 Framework group  C1[X(C13H14ClNO5)]
 Deg. of freedom    96
 Full point group                 C1      NOp   1
 Largest Abelian subgroup         C1      NOp   1
 Largest concise Abelian subgroup C1      NOp   1
                         Standard orientation:                         
 ---------------------------------------------------------------------
 Center     Atomic      Atomic             Coordinates (Angstroms)
 Number     Number       Type             X           Y           Z
 ---------------------------------------------------------------------
      1          8           0       -0.671306    2.809577   -0.131290
      2          6           0       -1.548920    1.793328   -0.111167
      3          6           0       -1.190115    0.473441   -0.450333
      4          6           0        0.193421    0.181972   -0.813988
      5          7           0        1.117647    1.068178   -0.920759
      6          6           0        2.370456    0.340905   -1.176677
      7          6           0        3.316375    0.419586    0.047374
      8          8           0        4.150742    1.560024   -0.070168
      9          6           0        2.628313    0.485508    1.424530
     10          6           0        1.853968   -0.746499    1.822794
     11          8           0        0.550190   -0.512185    1.995226
     12          8           0        2.339895   -1.855959    1.909579
     13          6           0        1.856458   -1.039793   -1.641894
     14          6           0        2.649171   -2.284035   -1.320235
     15          8           0        0.532038   -1.102119   -1.041922
     16          6           0       -2.144064   -0.551049   -0.407864
     17          6           0       -3.441321   -0.255561   -0.031928
     18         17           0       -4.636283   -1.532882    0.024560
     19          6           0       -3.814007    1.048381    0.306279
     20          6           0       -2.871162    2.064148    0.266091
     21          1           0        0.212276    2.461587   -0.417407
     22          1           0        2.914650    0.816597   -1.998338
     23          1           0        3.995725   -0.439340    0.019315
     24          1           0        3.594460    2.354794   -0.148917
     25          1           0        1.980470    1.363652    1.468159
     26          1           0        3.429779    0.598636    2.160229
     27          1           0        0.098273   -1.355587    2.210495
     28          1           0        1.682256   -0.981676   -2.723482
     29          1           0        2.786008   -2.414885   -0.246263
     30          1           0        2.136563   -3.161288   -1.721026
     31          1           0        3.630668   -2.218881   -1.799759
     32          1           0       -1.854678   -1.564579   -0.668189
     33          1           0       -4.837962    1.262195    0.598234
     34          1           0       -3.139111    3.083829    0.525445
 ---------------------------------------------------------------------
 Rotational constants (GHZ):      0.5470734      0.1971421      0.1787898
 Standard basis: 6-311+G(2d,p) (5D, 7F)
 There are   632 symmetry adapted basis functions of A   symmetry.
 Integral buffers will be    131072 words long.
 Raffenetti 2 integral format.
 Two-electron integral symmetry is turned on.
   632 basis functions,   969 primitive gaussians,   672 cartesian basis functions
    78 alpha electrons       78 beta electrons
       nuclear repulsion energy      1775.1373669014 Hartrees.
 NAtoms=   34 NActive=   34 NUniq=   34 SFac= 1.00D+00 NAtFMM=   50 NAOKFM=F Big=F
 Using the following non-standard input for PCM:
 radii=bondi
 --- end of non-standard input.
 ------------------------------------------------------------------------------
 Polarizable Continuum Model (PCM)
 =================================
 Model                : PCM.
 Atomic radii         : Bondi.
 Polarization charges : Total charges.
 Charge compensation  : None.
 Solution method      : Matrix inversion.
 Cavity type          : Scaled VdW (van der Waals Surface) (Alpha=1.100).
 Cavity algorithm     : GePol (No added spheres)
                        Default sphere list used, NSphG=   34.
                        Lebedev-Laikov grids with approx.  5.0 points / Ang**2.
                        Smoothing algorithm: Karplus/York (Gamma=1.0000).
                        Polarization charges: spherical gaussians, with
                                              point-specific exponents (IZeta= 3).
                        Self-potential: point-specific (ISelfS= 7).
                        Self-field    : sphere-specific E.n sum rule (ISelfD= 2).
 Solvent              : Methanol, Eps=  32.613000 Eps(inf)=   1.765709
 ------------------------------------------------------------------------------
 One-electron integrals computed using PRISM.
 NBasis=   632 RedAO= T  NBF=   632
 NBsUse=   630 1.00D-06 NBFU=   630
 Initial guess read from the checkpoint file:  1b-conf-11.chk
 B after Tr=     0.000000    0.000000    0.000000
         Rot=    1.000000    0.000000    0.000000    0.000000 Ang=   0.00 deg.
 Initial guess orbital symmetries:
       Occupied  (A) (A) (A) (A) (A) (A) (A) (A) (A) (A) (A) (A)
                 (A) (A) (A) (A) (A) (A) (A) (A) (A) (A) (A) (A)
                 (A) (A) (A) (A) (A) (A) (A) (A) (A) (A) (A) (A)
                 (A) (A) (A) (A) (A) (A) (A) (A) (A) (A) (A) (A)
                 (A) (A) (A) (A) (A) (A) (A) (A) (A) (A) (A) (A)
                 (A) (A) (A) (A) (A) (A) (A) (A) (A) (A) (A) (A)
                 (A) (A) (A) (A) (A) (A)
       Virtual   (A) (A) (A) (A) (A) (A) (A) (A) (A) (A) (A) (A)
                 (A) (A) (A) (A) (A) (A) (A) (A) (A) (A) (A) (A)
                 (A) (A) (A) (A) (A) (A) (A) (A) (A) (A) (A) (A)
                 (A) (A) (A) (A) (A) (A) (A) (A) (A) (A) (A) (A)
                 (A) (A) (A) (A) (A) (A) (A) (A) (A) (A) (A) (A)
                 (A) (A) (A) (A) (A) (A) (A) (A) (A) (A) (A) (A)
                 (A) (A) (A) (A) (A) (A) (A) (A) (A) (A) (A) (A)
                 (A) (A) (A) (A) (A) (A) (A) (A) (A) (A) (A) (A)
                 (A) (A) (A) (A) (A) (A) (A) (A) (A) (A) (A) (A)
                 (A) (A) (A) (A) (A) (A) (A) (A) (A) (A) (A) (A)
                 (A) (A) (A) (A) (A) (A) (A) (A) (A) (A) (A) (A)
                 (A) (A) (A) (A) (A) (A) (A) (A) (A) (A) (A) (A)
                 (A) (A) (A) (A) (A) (A) (A) (A) (A) (A) (A) (A)
                 (A) (A) (A) (A) (A) (A) (A) (A) (A) (A) (A) (A)
                 (A) (A) (A) (A) (A) (A) (A) (A) (A) (A) (A) (A)
                 (A) (A) (A) (A) (A) (A) (A) (A) (A) (A) (A) (A)
                 (A) (A) (A) (A) (A) (A) (A) (A) (A) (A) (A) (A)
                 (A) (A) (A) (A) (A) (A) (A) (A) (A) (A) (A) (A)
                 (A) (A) (A) (A) (A) (A) (A) (A) (A) (A) (A) (A)
                 (A) (A) (A) (A) (A) (A) (A) (A) (A) (A) (A) (A)
                 (A) (A) (A) (A) (A) (A) (A) (A) (A) (A) (A) (A)
                 (A) (A) (A) (A) (A) (A) (A) (A) (A) (A) (A) (A)
                 (A) (A) (A) (A) (A) (A) (A) (A) (A) (A) (A) (A)
                 (A) (A) (A) (A) (A) (A) (A) (A) (A) (A) (A) (A)
                 (A) (A) (A) (A) (A) (A) (A) (A) (A) (A) (A) (A)
                 (A) (A) (A) (A) (A) (A) (A) (A) (A) (A) (A) (A)
                 (A) (A) (A) (A) (A) (A) (A) (A) (A) (A) (A) (A)
                 (A) (A) (A) (A) (A) (A) (A) (A) (A) (A) (A) (A)
                 (A) (A) (A) (A) (A) (A) (A) (A) (A) (A) (A) (A)
                 (A) (A) (A) (A) (A) (A) (A) (A) (A) (A) (A) (A)
                 (A) (A) (A) (A) (A) (A) (A) (A) (A) (A) (A) (A)
                 (A) (A) (A) (A) (A) (A) (A) (A) (A) (A) (A) (A)
                 (A) (A) (A) (A) (A) (A) (A) (A) (A) (A) (A) (A)
                 (A) (A) (A) (A) (A) (A) (A) (A) (A) (A) (A) (A)
                 (A) (A) (A) (A) (A) (A) (A) (A) (A) (A) (A) (A)
                 (A) (A) (A) (A) (A) (A) (A) (A) (A) (A) (A) (A)
                 (A) (A) (A) (A) (A) (A) (A) (A) (A) (A) (A) (A)
                 (A) (A) (A) (A) (A) (A) (A) (A) (A) (A) (A) (A)
                 (A) (A) (A) (A) (A) (A) (A) (A) (A) (A) (A) (A)
                 (A) (A) (A) (A) (A) (A) (A) (A) (A) (A) (A) (A)
                 (A) (A) (A) (A) (A) (A) (A) (A) (A) (A) (A) (A)
                 (A) (A) (A) (A) (A) (A) (A) (A) (A) (A) (A) (A)
                 (A) (A) (A) (A) (A) (A) (A) (A) (A) (A) (A) (A)
                 (A) (A) (A) (A) (A) (A) (A) (A) (A) (A) (A) (A)
                 (A) (A) (A) (A) (A) (A) (A) (A) (A) (A) (A) (A)
                 (A) (A) (A) (A) (A) (A) (A) (A) (A) (A) (A) (A)
 Requested convergence on RMS density matrix=1.00D-08 within 128 cycles.
 Requested convergence on MAX density matrix=1.00D-06.
 Requested convergence on             energy=1.00D-06.
 No special actions if energy rises.
 Error on total polarization charges =  0.05018
 SCF Done:  E(RB3LYP) =  -1395.24746169     A.U. after   13 cycles
             Convg  =    0.4590D-08             -V/T =  2.0034
 Range of M.O.s used for correlation:     1   630
 NBasis=   632 NAE=    78 NBE=    78 NFC=     0 NFV=     0
 NROrb=    630 NOA=    78 NOB=    78 NVA=   552 NVB=   552

 **** Warning!!: The largest alpha MO coefficient is  0.13421923D+03

 NEqPCM:  Using equilibrium solvation (IEInf=0, Eps=  32.6130, EpsInf=   1.7657)
          Differentiating once with respect to magnetic field using GIAOs.
          Electric field/nuclear overlap derivatives assumed to be zero.
 FoFCou: FMM=F IPFlag=           0 FMFlag=    10101102 FMFlg1=           0
         NFxFlg=    40000000 DoJE=F BraDBF=F KetDBF=T FulRan=T
         Omega=  0.000000  0.000000  1.000000  0.000000  0.000000 ICntrl=    6100 IOpCl=  0
         NMat0=    1 NMatS0=    1 NMatT0=    0 NMatD0=    1 NMtDS0=    0 NMtDT0=    0
         I1Cent=           7 NGrid=        2432.
 Symmetry not used in FoFCou.
          There are     3 degrees of freedom in the 1st order CPHF.  IDoFFX=0.
      3 vectors produced by pass  0 Test12= 1.44D-12 3.33D-08 XBig12= 4.55D+02 7.73D+00.
 AX will form     3 AO Fock derivatives at one time.
      3 vectors produced by pass  1 Test12= 1.44D-12 3.33D-08 XBig12= 8.71D-01 2.34D-01.
      3 vectors produced by pass  2 Test12= 1.44D-12 3.33D-08 XBig12= 3.32D-03 2.47D-02.
      3 vectors produced by pass  3 Test12= 1.44D-12 3.33D-08 XBig12= 1.29D-05 1.20D-03.
      3 vectors produced by pass  4 Test12= 1.44D-12 3.33D-08 XBig12= 4.41D-08 6.11D-05.
      3 vectors produced by pass  5 Test12= 1.44D-12 3.33D-08 XBig12= 1.98D-10 3.45D-06.
      3 vectors produced by pass  6 Test12= 1.44D-12 3.33D-08 XBig12= 6.52D-13 1.69D-07.
 Inverted reduced A of dimension    21 with in-core refinement.
 Calculating GIAO nuclear magnetic shielding tensors.
 SCF GIAO Magnetic shielding tensor (ppm):
  1  O    Isotropic =   186.0931   Anisotropy =   135.2427
   XX=   149.7705   YX=    32.4084   ZX=    39.7166
   XY=     8.8767   YY=   147.8842   ZY=   -27.7505
   XZ=    43.7325   YZ=   -16.4150   ZZ=   260.6247
   Eigenvalues:   114.0873   167.9371   276.2549
  2  C    Isotropic =    16.5572   Anisotropy =   151.3273
   XX=   -22.2781   YX=   -35.4601   ZX=    28.3952
   XY=   -33.7223   YY=   -34.7778   ZY=   -21.2324
   XZ=    26.9970   YZ=   -19.8449   ZZ=   106.7276
   Eigenvalues:   -63.7052    -4.0652   117.4421
  3  C    Isotropic =    64.7122   Anisotropy =   145.6298
   XX=     7.7471   YX=     6.5538   ZX=    38.8726
   XY=    -4.6542   YY=    38.2553   ZY=   -21.7385
   XZ=    37.3512   YZ=   -24.4819   ZZ=   148.1342
   Eigenvalues:    -3.0734    35.4112   161.7987
  4  C    Isotropic =     7.3528   Anisotropy =    91.2042
   XX=    -3.3554   YX=    46.3224   ZX=    23.5227
   XY=    52.2043   YY=   -32.9935   ZY=   -23.7005
   XZ=    24.1010   YZ=   -31.2234   ZZ=    58.4073
   Eigenvalues:   -79.1720    33.0747    68.1556
  5  N    Isotropic =    22.3175   Anisotropy =   255.3556
   XX=   -92.9866   YX=    57.2404   ZX=    61.5322
   XY=    42.6852   YY=   -11.3792   ZY=   -24.7101
   XZ=    89.1064   YZ=   -34.3395   ZZ=   171.3181
   Eigenvalues:  -137.7767    12.1746   192.5545
  6  C    Isotropic =   103.2142   Anisotropy =    23.5609
   XX=   116.6223   YX=     6.0357   ZX=     2.1652
   XY=   -12.3945   YY=   104.3949   ZY=     0.7980
   XZ=    13.6547   YZ=     9.9007   ZZ=    88.6256
   Eigenvalues:    84.7186   106.0027   118.9215
  7  C    Isotropic =   107.0240   Anisotropy =    49.3799
   XX=   108.4067   YX=    28.7899   ZX=    -0.7716
   XY=    27.8965   YY=   113.9611   ZY=    -1.7678
   XZ=    -2.2208   YZ=    -4.7080   ZZ=    98.7042
   Eigenvalues:    82.6332    98.4948   139.9439
  8  O    Isotropic =   252.9895   Anisotropy =    47.5623
   XX=   246.4058   YX=    25.7210   ZX=    -1.9943
   XY=    37.4906   YY=   248.5043   ZY=   -11.6317
   XZ=     4.7170   YZ=   -19.4667   ZZ=   264.0585
   Eigenvalues:   213.0213   261.2496   284.6977
  9  C    Isotropic =   140.7909   Anisotropy =    39.8474
   XX=   131.9831   YX=    23.0997   ZX=   -11.2499
   XY=    18.8335   YY=   149.2421   ZY=     0.0824
   XZ=   -12.2761   YZ=    -8.6573   ZZ=   141.1476
   Eigenvalues:   115.6072   139.4097   167.3559
 10  C    Isotropic =     1.8149   Anisotropy =   112.3389
   XX=   -80.4838   YX=   -37.3494   ZX=    37.0866
   XY=    -9.3641   YY=    18.7186   ZY=    13.1918
   XZ=    33.5765   YZ=    15.7301   ZZ=    67.2098
   Eigenvalues:   -94.4867    23.2239    76.7075
 11  O    Isotropic =    98.4323   Anisotropy =   183.3410
   XX=   219.1800   YX=    41.7537   ZX=   -17.7116
   XY=   -68.3712   YY=   -56.0895   ZY=    43.0001
   XZ=     4.0395   YZ=    23.0350   ZZ=   132.2064
   Eigenvalues:   -62.2214   136.8586   220.6597
 12  O    Isotropic =   -69.2645   Anisotropy =   511.7105
   XX=  -253.8573   YX=    63.8766   ZX=    88.0829
   XY=    50.2696   YY=  -195.7347   ZY=    73.9696
   XZ=    94.6680   YZ=    68.0573   ZZ=   241.7984
   Eigenvalues:  -292.5779  -187.0915   271.8759
 13  C    Isotropic =    99.1683   Anisotropy =    71.2450
   XX=   133.9482   YX=     7.4741   ZX=   -27.1017
   XY=     4.0890   YY=    89.5372   ZY=    -5.8218
   XZ=   -32.3285   YZ=     6.3833   ZZ=    74.0196
   Eigenvalues:    61.5648    89.2752   146.6650
 14  C    Isotropic =   168.6020   Anisotropy =    18.2429
   XX=   165.7782   YX=    -7.9173   ZX=    -1.6258
   XY=   -12.3484   YY=   173.3146   ZY=    -4.8372
   XZ=    -0.2266   YZ=    -2.2004   ZZ=   166.7134
   Eigenvalues:   157.8462   167.1960   180.7639
 15  O    Isotropic =   123.7858   Anisotropy =   135.4524
   XX=    38.8468   YX=   -71.3243   ZX=    44.5086
   XY=   -29.9243   YY=   199.1243   ZY=    25.2127
   XZ=    -7.7462   YZ=   -24.9191   ZZ=   133.3862
   Eigenvalues:    21.3962   135.8738   214.0873
 16  C    Isotropic =    48.9696   Anisotropy =   156.6865
   XX=    41.5633   YX=    10.3832   ZX=    30.5340
   XY=     4.8242   YY=   -33.8327   ZY=   -36.1982
   XZ=    28.2744   YZ=   -37.5864   ZZ=   139.1782
   Eigenvalues:   -43.5611    37.0426   153.4273
 17  C    Isotropic =    47.9445   Anisotropy =    99.5765
   XX=    25.2303   YX=   -58.8104   ZX=    11.6186
   XY=   -58.1706   YY=     8.3103   ZY=    -5.3968
   XZ=    11.5923   YZ=    -5.4955   ZZ=   110.2930
   Eigenvalues:   -42.4088    71.9135   114.3288
 18  Cl   Isotropic =   710.2597   Anisotropy =   497.2522
   XX=   766.7176   YX=   252.9538   ZX=    -4.5475
   XY=   252.4552   YY=   808.6735   ZY=   -15.1604
   XZ=    -6.4459   YZ=   -16.7600   ZZ=   555.3880
   Eigenvalues:   532.1152   556.9027  1041.7612
 19  C    Isotropic =    42.7861   Anisotropy =   162.6451
   XX=   -36.0689   YX=    13.4169   ZX=    49.0011
   XY=    13.9845   YY=    31.0705   ZY=   -26.2920
   XZ=    51.0859   YZ=   -27.2758   ZZ=   133.3567
   Eigenvalues:   -54.6819    31.8240   151.2162
 20  C    Isotropic =    59.3448   Anisotropy =   147.3782
   XX=    48.5758   YX=     9.1469   ZX=    29.2235
   XY=    12.2221   YY=   -13.7090   ZY=   -35.8090
   XZ=    30.0554   YZ=   -35.8721   ZZ=   143.1677
   Eigenvalues:   -25.5113    45.9488   157.5970
 21  H    Isotropic =    19.6427   Anisotropy =    25.1110
   XX=    29.0978   YX=    -9.5939   ZX=    -6.8741
   XY=    -6.6237   YY=    22.0044   ZY=     3.6949
   XZ=    -6.5509   YZ=     3.2523   ZZ=     7.8258
   Eigenvalues:     5.7955    16.7492    36.3834
 22  H    Isotropic =    27.2686   Anisotropy =     4.3966
   XX=    27.1124   YX=     2.5185   ZX=    -0.8871
   XY=     1.4860   YY=    26.4026   ZY=    -0.4184
   XZ=    -2.1045   YZ=    -1.0815   ZZ=    28.2908
   Eigenvalues:    24.6739    26.9323    30.1997
 23  H    Isotropic =    27.3633   Anisotropy =     4.3533
   XX=    28.0556   YX=     0.8342   ZX=     0.7357
   XY=    -0.2897   YY=    30.0800   ZY=     1.1308
   XZ=     0.5988   YZ=     0.6316   ZZ=    23.9542
   Eigenvalues:    23.7396    28.0847    30.2655
 24  H    Isotropic =    29.6473   Anisotropy =    13.5944
   XX=    29.1581   YX=    -1.8872   ZX=     0.1456
   XY=    -2.6335   YY=    37.9949   ZY=    -1.7175
   XZ=     1.5004   YZ=    -1.3801   ZZ=    21.7889
   Eigenvalues:    21.5914    28.6403    38.7102
 25  H    Isotropic =    29.1455   Anisotropy =     2.1828
   XX=    29.9954   YX=     0.2973   ZX=    -0.1051
   XY=    -2.1385   YY=    29.1633   ZY=     0.7141
   XZ=     1.2963   YZ=     1.6076   ZZ=    28.2779
   Eigenvalues:    27.1144    29.7215    30.6007
 26  H    Isotropic =    29.1673   Anisotropy =     6.8953
   XX=    28.9340   YX=     0.7414   ZX=     2.4697
   XY=     2.8474   YY=    27.3092   ZY=     0.6545
   XZ=     3.7823   YZ=     0.3647   ZZ=    31.2587
   Eigenvalues:    25.7097    28.0280    33.7641
 27  H    Isotropic =    25.2640   Anisotropy =     9.3979
   XX=    27.5038   YX=     6.5189   ZX=    -1.9651
   XY=     2.7204   YY=    23.3661   ZY=    -2.1181
   XZ=    -0.0139   YZ=    -4.1460   ZZ=    24.9221
   Eigenvalues:    19.4748    24.7879    31.5293
 28  H    Isotropic =    26.8851   Anisotropy =     6.5202
   XX=    25.5321   YX=     0.3026   ZX=    -0.7262
   XY=    -0.3681   YY=    24.2284   ZY=    -0.0519
   XZ=    -1.5324   YZ=     1.8204   ZZ=    30.8949
   Eigenvalues:    24.1027    25.3207    31.2320
 29  H    Isotropic =    30.2445   Anisotropy =     7.5888
   XX=    25.8934   YX=    -1.2128   ZX=     1.2492
   XY=    -2.1080   YY=    29.6567   ZY=    -0.3062
   XZ=     0.6764   YZ=    -0.0374   ZZ=    35.1834
   Eigenvalues:    25.1946    30.2352    35.3037
 30  H    Isotropic =    30.2105   Anisotropy =     9.9238
   XX=    28.0975   YX=     0.8409   ZX=     0.9115
   XY=     1.3898   YY=    35.1362   ZY=     3.8304
   XZ=     0.9097   YZ=     3.5383   ZZ=    27.3979
   Eigenvalues:    25.8352    27.9700    36.8264
 31  H    Isotropic =    30.4519   Anisotropy =     9.8710
   XX=    34.1547   YX=    -2.1137   ZX=    -3.6999
   XY=    -2.3339   YY=    29.0873   ZY=     1.8998
   XZ=    -4.0843   YZ=     1.6266   ZZ=    28.1138
   Eigenvalues:    26.0464    28.2768    37.0326
 32  H    Isotropic =    23.7785   Anisotropy =    12.3686
   XX=    31.3287   YX=     2.0492   ZX=    -1.8914
   XY=     2.4945   YY=    21.0626   ZY=     0.2522
   XZ=    -1.6950   YZ=     0.5180   ZZ=    18.9442
   Eigenvalues:    18.4693    20.8419    32.0242
 33  H    Isotropic =    24.0436   Anisotropy =     7.1398
   XX=    23.4119   YX=     1.3300   ZX=    -0.3971
   XY=     0.7224   YY=    28.4431   ZY=     1.3566
   XZ=    -0.3694   YZ=     1.1584   ZZ=    20.2758
   Eigenvalues:    20.0010    23.3263    28.8035
 34  H    Isotropic =    24.5076   Anisotropy =     5.5311
   XX=    27.7811   YX=     0.3935   ZX=    -1.3710
   XY=     1.2944   YY=    24.5272   ZY=     0.1945
   XZ=    -1.2285   YZ=     0.3541   ZZ=    21.2145
   Eigenvalues:    20.9148    24.4130    28.1950
 End of Minotr Frequency-dependent properties file   721 does not exist.
 End of Minotr Frequency-dependent properties file   722 does not exist.

 **********************************************************************

            Population analysis using the SCF density.

 **********************************************************************

 Orbital symmetries:
       Occupied  (A) (A) (A) (A) (A) (A) (A) (A) (A) (A) (A) (A)
                 (A) (A) (A) (A) (A) (A) (A) (A) (A) (A) (A) (A)
                 (A) (A) (A) (A) (A) (A) (A) (A) (A) (A) (A) (A)
                 (A) (A) (A) (A) (A) (A) (A) (A) (A) (A) (A) (A)
                 (A) (A) (A) (A) (A) (A) (A) (A) (A) (A) (A) (A)
                 (A) (A) (A) (A) (A) (A) (A) (A) (A) (A) (A) (A)
                 (A) (A) (A) (A) (A) (A)
       Virtual   (A) (A) (A) (A) (A) (A) (A) (A) (A) (A) (A) (A)
                 (A) (A) (A) (A) (A) (A) (A) (A) (A) (A) (A) (A)
                 (A) (A) (A) (A) (A) (A) (A) (A) (A) (A) (A) (A)
                 (A) (A) (A) (A) (A) (A) (A) (A) (A) (A) (A) (A)
                 (A) (A) (A) (A) (A) (A) (A) (A) (A) (A) (A) (A)
                 (A) (A) (A) (A) (A) (A) (A) (A) (A) (A) (A) (A)
                 (A) (A) (A) (A) (A) (A) (A) (A) (A) (A) (A) (A)
                 (A) (A) (A) (A) (A) (A) (A) (A) (A) (A) (A) (A)
                 (A) (A) (A) (A) (A) (A) (A) (A) (A) (A) (A) (A)
                 (A) (A) (A) (A) (A) (A) (A) (A) (A) (A) (A) (A)
                 (A) (A) (A) (A) (A) (A) (A) (A) (A) (A) (A) (A)
                 (A) (A) (A) (A) (A) (A) (A) (A) (A) (A) (A) (A)
                 (A) (A) (A) (A) (A) (A) (A) (A) (A) (A) (A) (A)
                 (A) (A) (A) (A) (A) (A) (A) (A) (A) (A) (A) (A)
                 (A) (A) (A) (A) (A) (A) (A) (A) (A) (A) (A) (A)
                 (A) (A) (A) (A) (A) (A) (A) (A) (A) (A) (A) (A)
                 (A) (A) (A) (A) (A) (A) (A) (A) (A) (A) (A) (A)
                 (A) (A) (A) (A) (A) (A) (A) (A) (A) (A) (A) (A)
                 (A) (A) (A) (A) (A) (A) (A) (A) (A) (A) (A) (A)
                 (A) (A) (A) (A) (A) (A) (A) (A) (A) (A) (A) (A)
                 (A) (A) (A) (A) (A) (A) (A) (A) (A) (A) (A) (A)
                 (A) (A) (A) (A) (A) (A) (A) (A) (A) (A) (A) (A)
                 (A) (A) (A) (A) (A) (A) (A) (A) (A) (A) (A) (A)
                 (A) (A) (A) (A) (A) (A) (A) (A) (A) (A) (A) (A)
                 (A) (A) (A) (A) (A) (A) (A) (A) (A) (A) (A) (A)
                 (A) (A) (A) (A) (A) (A) (A) (A) (A) (A) (A) (A)
                 (A) (A) (A) (A) (A) (A) (A) (A) (A) (A) (A) (A)
                 (A) (A) (A) (A) (A) (A) (A) (A) (A) (A) (A) (A)
                 (A) (A) (A) (A) (A) (A) (A) (A) (A) (A) (A) (A)
                 (A) (A) (A) (A) (A) (A) (A) (A) (A) (A) (A) (A)
                 (A) (A) (A) (A) (A) (A) (A) (A) (A) (A) (A) (A)
                 (A) (A) (A) (A) (A) (A) (A) (A) (A) (A) (A) (A)
                 (A) (A) (A) (A) (A) (A) (A) (A) (A) (A) (A) (A)
                 (A) (A) (A) (A) (A) (A) (A) (A) (A) (A) (A) (A)
                 (A) (A) (A) (A) (A) (A) (A) (A) (A) (A) (A) (A)
                 (A) (A) (A) (A) (A) (A) (A) (A) (A) (A) (A) (A)
                 (A) (A) (A) (A) (A) (A) (A) (A) (A) (A) (A) (A)
                 (A) (A) (A) (A) (A) (A) (A) (A) (A) (A) (A) (A)
                 (A) (A) (A) (A) (A) (A) (A) (A) (A) (A) (A) (A)
                 (A) (A) (A) (A) (A) (A) (A) (A) (A) (A) (A) (A)
                 (A) (A) (A) (A) (A) (A) (A) (A) (A) (A) (A) (A)
                 (A) (A) (A) (A) (A) (A) (A) (A) (A) (A) (A) (A)
                 (A) (A) (A) (A) (A) (A) (A) (A) (A) (A) (A) (A)
                 (A) (A) (A) (A) (A) (A) (A) (A) (A) (A) (A) (A)
                 (A) (A) (A) (A) (A) (A) (A) (A) (A) (A) (A) (A)
                 (A) (A) (A) (A) (A) (A) (A) (A) (A) (A) (A) (A)
 The electronic state is 1-A.
 Alpha  occ. eigenvalues -- -101.55951 -19.18279 -19.17433 -19.15412 -19.13713
 Alpha  occ. eigenvalues --  -19.12728 -14.31539 -10.31993 -10.28469 -10.25525
 Alpha  occ. eigenvalues --  -10.24024 -10.23973 -10.23783 -10.21492 -10.20329
 Alpha  occ. eigenvalues --  -10.19780 -10.19673 -10.18641 -10.18567 -10.16302
 Alpha  occ. eigenvalues --   -9.47401  -7.23836  -7.22897  -7.22872  -1.12500
 Alpha  occ. eigenvalues --   -1.11288  -1.07296  -1.04162  -1.03389  -0.92707
 Alpha  occ. eigenvalues --   -0.90151  -0.85024  -0.81784  -0.78578  -0.77093
 Alpha  occ. eigenvalues --   -0.74043  -0.71569  -0.68052  -0.64594  -0.63460
 Alpha  occ. eigenvalues --   -0.61317  -0.59959  -0.58981  -0.54937  -0.53436
 Alpha  occ. eigenvalues --   -0.53069  -0.51732  -0.50576  -0.49940  -0.48139
 Alpha  occ. eigenvalues --   -0.47737  -0.47064  -0.46032  -0.45903  -0.44817
 Alpha  occ. eigenvalues --   -0.43673  -0.43161  -0.41910  -0.41762  -0.40816
 Alpha  occ. eigenvalues --   -0.40245  -0.39809  -0.39259  -0.38859  -0.38241
 Alpha  occ. eigenvalues --   -0.36956  -0.36646  -0.35858  -0.34439  -0.33701
 Alpha  occ. eigenvalues --   -0.32386  -0.32358  -0.30959  -0.30038  -0.29536
 Alpha  occ. eigenvalues --   -0.28211  -0.26331  -0.23406
 Alpha virt. eigenvalues --   -0.06090  -0.02229  -0.01716  -0.00107   0.00855
 Alpha virt. eigenvalues --    0.01167   0.01650   0.01766   0.02461   0.03221
 Alpha virt. eigenvalues --    0.03310   0.04153   0.04358   0.04665   0.05383
 Alpha virt. eigenvalues --    0.05602   0.06179   0.06815   0.07454   0.07467
 Alpha virt. eigenvalues --    0.07991   0.08244   0.08791   0.09126   0.09344
 Alpha virt. eigenvalues --    0.09960   0.10277   0.10700   0.11380   0.11830
 Alpha virt. eigenvalues --    0.12260   0.12655   0.12960   0.13484   0.13585
 Alpha virt. eigenvalues --    0.13742   0.14053   0.14214   0.14614   0.15162
 Alpha virt. eigenvalues --    0.15407   0.15590   0.15860   0.16348   0.16817
 Alpha virt. eigenvalues --    0.17115   0.17354   0.18007   0.18233   0.18547
 Alpha virt. eigenvalues --    0.18675   0.19322   0.19604   0.19930   0.20221
 Alpha virt. eigenvalues --    0.20433   0.20557   0.20788   0.20983   0.21529
 Alpha virt. eigenvalues --    0.21911   0.21994   0.22352   0.22601   0.22857
 Alpha virt. eigenvalues --    0.23529   0.24021   0.24212   0.24242   0.25123
 Alpha virt. eigenvalues --    0.25224   0.25740   0.26171   0.26452   0.26896
 Alpha virt. eigenvalues --    0.27067   0.27329   0.27662   0.28242   0.28298
 Alpha virt. eigenvalues --    0.28780   0.29396   0.29530   0.30013   0.30233
 Alpha virt. eigenvalues --    0.30609   0.31852   0.32138   0.32310   0.32567
 Alpha virt. eigenvalues --    0.33014   0.33501   0.33800   0.34048   0.34331
 Alpha virt. eigenvalues --    0.34526   0.35208   0.35640   0.35835   0.36440
 Alpha virt. eigenvalues --    0.36747   0.37549   0.37847   0.38528   0.38820
 Alpha virt. eigenvalues --    0.39950   0.40566   0.41265   0.41681   0.42030
 Alpha virt. eigenvalues --    0.42620   0.43027   0.43836   0.44261   0.44437
 Alpha virt. eigenvalues --    0.45691   0.45852   0.46488   0.47010   0.47662
 Alpha virt. eigenvalues --    0.48055   0.48564   0.49615   0.50650   0.51132
 Alpha virt. eigenvalues --    0.52619   0.52928   0.53077   0.53544   0.53869
 Alpha virt. eigenvalues --    0.54753   0.55222   0.55687   0.55902   0.56403
 Alpha virt. eigenvalues --    0.56990   0.57656   0.57996   0.58664   0.59135
 Alpha virt. eigenvalues --    0.59898   0.60862   0.61397   0.61668   0.62674
 Alpha virt. eigenvalues --    0.63913   0.64311   0.64539   0.64913   0.65496
 Alpha virt. eigenvalues --    0.66214   0.66506   0.66786   0.67444   0.68047
 Alpha virt. eigenvalues --    0.68299   0.69457   0.70109   0.70600   0.71236
 Alpha virt. eigenvalues --    0.71473   0.72307   0.72694   0.73342   0.73812
 Alpha virt. eigenvalues --    0.74337   0.75053   0.75770   0.76384   0.76455
 Alpha virt. eigenvalues --    0.77483   0.77844   0.78114   0.79035   0.79287
 Alpha virt. eigenvalues --    0.79922   0.81086   0.81432   0.81469   0.83152
 Alpha virt. eigenvalues --    0.83293   0.83826   0.84474   0.86313   0.87010
 Alpha virt. eigenvalues --    0.87200   0.87555   0.89031   0.89918   0.90855
 Alpha virt. eigenvalues --    0.91075   0.93022   0.93100   0.93596   0.94976
 Alpha virt. eigenvalues --    0.95679   0.96473   0.96954   0.98585   0.99043
 Alpha virt. eigenvalues --    0.99870   1.00509   1.02432   1.02631   1.03939
 Alpha virt. eigenvalues --    1.04584   1.05757   1.06321   1.07424   1.08283
 Alpha virt. eigenvalues --    1.09135   1.10765   1.11272   1.11497   1.12324
 Alpha virt. eigenvalues --    1.12632   1.13227   1.14045   1.14576   1.15475
 Alpha virt. eigenvalues --    1.15870   1.16678   1.17387   1.18091   1.19208
 Alpha virt. eigenvalues --    1.19851   1.20267   1.21047   1.21415   1.22114
 Alpha virt. eigenvalues --    1.22372   1.23786   1.25390   1.25560   1.26436
 Alpha virt. eigenvalues --    1.26764   1.26949   1.27579   1.29688   1.30608
 Alpha virt. eigenvalues --    1.31323   1.32546   1.33281   1.34169   1.34423
 Alpha virt. eigenvalues --    1.35958   1.36614   1.37046   1.37534   1.37998
 Alpha virt. eigenvalues --    1.39457   1.39865   1.40511   1.42490   1.42769
 Alpha virt. eigenvalues --    1.42954   1.43522   1.45086   1.45773   1.46722
 Alpha virt. eigenvalues --    1.48214   1.50353   1.50809   1.52268   1.52696
 Alpha virt. eigenvalues --    1.54427   1.55743   1.56692   1.58027   1.59370
 Alpha virt. eigenvalues --    1.60739   1.61207   1.61768   1.62712   1.63290
 Alpha virt. eigenvalues --    1.64294   1.65495   1.66908   1.67706   1.69756
 Alpha virt. eigenvalues --    1.70558   1.72394   1.74044   1.74389   1.74925
 Alpha virt. eigenvalues --    1.76392   1.76977   1.78788   1.79231   1.80854
 Alpha virt. eigenvalues --    1.81478   1.83176   1.83810   1.86776   1.87182
 Alpha virt. eigenvalues --    1.90585   1.91085   1.92512   1.92824   1.94004
 Alpha virt. eigenvalues --    1.94545   1.95683   1.97445   1.99443   2.02057
 Alpha virt. eigenvalues --    2.03468   2.04251   2.05625   2.08242   2.09800
 Alpha virt. eigenvalues --    2.10938   2.12937   2.13792   2.14849   2.15702
 Alpha virt. eigenvalues --    2.16699   2.19014   2.19807   2.22087   2.22660
 Alpha virt. eigenvalues --    2.23810   2.25868   2.26036   2.28145   2.28716
 Alpha virt. eigenvalues --    2.29791   2.30890   2.32811   2.35454   2.35823
 Alpha virt. eigenvalues --    2.36357   2.36756   2.38770   2.39590   2.40284
 Alpha virt. eigenvalues --    2.41129   2.41882   2.43114   2.44478   2.46064
 Alpha virt. eigenvalues --    2.46609   2.49046   2.49699   2.50372   2.51951
 Alpha virt. eigenvalues --    2.52789   2.54789   2.57195   2.59198   2.60868
 Alpha virt. eigenvalues --    2.62748   2.63650   2.64357   2.65176   2.65573
 Alpha virt. eigenvalues --    2.66275   2.68935   2.69907   2.69973   2.71417
 Alpha virt. eigenvalues --    2.74709   2.75793   2.78764   2.79329   2.81956
 Alpha virt. eigenvalues --    2.83937   2.84999   2.85146   2.85949   2.87077
 Alpha virt. eigenvalues --    2.87259   2.88833   2.90506   2.90841   2.91505
 Alpha virt. eigenvalues --    2.95090   2.97194   2.98352   3.00501   3.01801
 Alpha virt. eigenvalues --    3.02322   3.05353   3.06577   3.07936   3.09161
 Alpha virt. eigenvalues --    3.10505   3.11437   3.11868   3.14331   3.17128
 Alpha virt. eigenvalues --    3.19400   3.21574   3.21783   3.24167   3.27729
 Alpha virt. eigenvalues --    3.28433   3.30170   3.31687   3.32349   3.34688
 Alpha virt. eigenvalues --    3.35455   3.36284   3.38065   3.38591   3.39185
 Alpha virt. eigenvalues --    3.40715   3.41301   3.42836   3.44423   3.44791
 Alpha virt. eigenvalues --    3.45466   3.46733   3.47199   3.49217   3.50200
 Alpha virt. eigenvalues --    3.51868   3.52241   3.53755   3.54158   3.55534
 Alpha virt. eigenvalues --    3.56412   3.57294   3.57439   3.58979   3.59324
 Alpha virt. eigenvalues --    3.59834   3.61670   3.61731   3.62441   3.64350
 Alpha virt. eigenvalues --    3.65402   3.66099   3.66977   3.67586   3.68619
 Alpha virt. eigenvalues --    3.69834   3.71292   3.71669   3.72601   3.73816
 Alpha virt. eigenvalues --    3.74380   3.75707   3.77143   3.77799   3.79696
 Alpha virt. eigenvalues --    3.81364   3.82868   3.83082   3.83772   3.85899
 Alpha virt. eigenvalues --    3.88214   3.89762   3.91445   3.93139   3.95505
 Alpha virt. eigenvalues --    3.96595   3.97772   4.00047   4.02992   4.04129
 Alpha virt. eigenvalues --    4.07886   4.11736   4.13062   4.17211   4.18798
 Alpha virt. eigenvalues --    4.21639   4.23624   4.25379   4.27937   4.29421
 Alpha virt. eigenvalues --    4.36537   4.38281   4.40776   4.43806   4.47201
 Alpha virt. eigenvalues --    4.55517   4.57546   4.59334   4.74605   4.76217
 Alpha virt. eigenvalues --    4.88708   5.04156   5.07095   5.09600   5.11669
 Alpha virt. eigenvalues --    5.13594   5.16764   5.18675   5.23235   5.24746
 Alpha virt. eigenvalues --    5.25686   5.37772   5.43625   5.46337   5.49158
 Alpha virt. eigenvalues --    5.58080   5.61070   5.65212   5.81078   5.81776
 Alpha virt. eigenvalues --    5.93468   6.10355   6.12737   6.77330   6.83996
 Alpha virt. eigenvalues --    6.86612   6.87326   6.90046   6.96696   6.97885
 Alpha virt. eigenvalues --    6.98367   7.00678   7.04357   7.06256   7.07397
 Alpha virt. eigenvalues --    7.08199   7.09368   7.15090   7.17323   7.19237
 Alpha virt. eigenvalues --    7.23505   7.31701   7.32450   7.36404   7.37238
 Alpha virt. eigenvalues --    7.38558   7.42346   7.54075   9.89938  23.68717
 Alpha virt. eigenvalues --   23.90896  23.92861  23.96612  23.99189  24.00652
 Alpha virt. eigenvalues --   24.00707  24.05251  24.07262  24.08860  24.14238
 Alpha virt. eigenvalues --   24.18766  24.32948  25.87696  26.28406  27.40795
 Alpha virt. eigenvalues --   35.78312  49.96803  49.99343  50.04119  50.05166
 Alpha virt. eigenvalues --   50.09457 215.90166
          Condensed to atoms (all electrons):
              1          2          3          4          5          6
     1  O    8.348573   0.388768   0.029534  -0.069464   0.031246   0.008557
     2  C    0.388768  10.619962  -0.177469  -0.918609   0.149849   0.186909
     3  C    0.029534  -0.177469   8.540838   0.613993  -0.103223  -0.120955
     4  C   -0.069464  -0.918609   0.613993   8.037884  -0.157522   0.677876
     5  N    0.031246   0.149849  -0.103223  -0.157522   7.453154  -0.302177
     6  C    0.008557   0.186909  -0.120955   0.677876  -0.302177   9.561953
     7  C    0.004579   0.069270   0.029996   0.150016  -0.109145  -1.125609
     8  O    0.000608   0.003419  -0.003211  -0.020692   0.035565  -0.015505
     9  C    0.000624  -0.058826   0.009988   0.023233  -0.161977   0.883372
    10  C    0.000153  -0.060896  -0.010155  -0.160838   0.040581  -0.327878
    11  O   -0.000456   0.029616  -0.011322  -0.105516   0.000674   0.001294
    12  O   -0.000071   0.001993  -0.009726  -0.002158   0.003437   0.016441
    13  C   -0.013760  -0.240126  -0.125380  -1.814363   0.753504  -3.408251
    14  C   -0.000398  -0.016308  -0.017011  -0.418711   0.091977  -0.233239
    15  O   -0.000796   0.001782  -0.005085   0.386706  -0.103403   0.007481
    16  C    0.059075  -0.130410   0.900571  -0.877366  -0.142971  -0.422724
    17  C   -0.046224  -1.490755  -1.230546   0.449927  -0.084909  -0.007872
    18  Cl  -0.000151   0.080208   0.092762  -0.051046  -0.000201  -0.003585
    19  C    0.038325  -0.122612  -1.340776  -0.508081   0.010991   0.018715
    20  C   -0.387449  -2.096683  -1.128858   0.252559   0.069602   0.042810
    21  H    0.231373  -0.012985  -0.030730  -0.019386   0.044170   0.020127
    22  H    0.000614   0.005455   0.001201   0.002483  -0.054993   0.511708
    23  H    0.000005   0.003195   0.001472   0.005886   0.012061  -0.081986
    24  H    0.000011  -0.006391   0.007332  -0.008840   0.015290  -0.087621
    25  H   -0.000796   0.034422  -0.017450  -0.000109   0.006512  -0.006078
    26  H   -0.000024  -0.000281   0.000566   0.000200   0.001258  -0.011968
    27  H    0.000079   0.012508   0.013888   0.009647   0.000487  -0.001501
    28  H    0.000083  -0.008298   0.002961  -0.011504  -0.012064  -0.028173
    29  H    0.000006  -0.000846  -0.000249   0.009950  -0.004458   0.025085
    30  H    0.000001   0.000045   0.003887  -0.015132   0.000897  -0.020087
    31  H    0.000001  -0.000168   0.000163  -0.009257  -0.000513   0.012083
    32  H   -0.000492   0.019473  -0.006280   0.002280  -0.001548   0.008239
    33  H   -0.000682   0.026832  -0.008902  -0.000109   0.000007   0.000041
    34  H    0.001992  -0.196402  -0.006187   0.008942  -0.000148   0.000076
              7          8          9         10         11         12
     1  O    0.004579   0.000608   0.000624   0.000153  -0.000456  -0.000071
     2  C    0.069270   0.003419  -0.058826  -0.060896   0.029616   0.001993
     3  C    0.029996  -0.003211   0.009988  -0.010155  -0.011322  -0.009726
     4  C    0.150016  -0.020692   0.023233  -0.160838  -0.105516  -0.002158
     5  N   -0.109145   0.035565  -0.161977   0.040581   0.000674   0.003437
     6  C   -1.125609  -0.015505   0.883372  -0.327878   0.001294   0.016441
     7  C    8.023262   0.098562  -1.110094   0.020807   0.022614  -0.003860
     8  O    0.098562   8.203369  -0.096766   0.024213  -0.000787  -0.000939
     9  C   -1.110094  -0.096766   6.663487  -0.108242  -0.107389  -0.083869
    10  C    0.020807   0.024213  -0.108242   5.008851   0.375991   0.482545
    11  O    0.022614  -0.000787  -0.107389   0.375991   7.883204  -0.073195
    12  O   -0.003860  -0.000939  -0.083869   0.482545  -0.073195   8.187048
    13  C   -0.252478   0.043177  -0.342980   0.385610   0.030751  -0.019931
    14  C   -0.413080   0.015914   0.064096   0.025409  -0.009511  -0.017638
    15  O    0.063149   0.000426  -0.060490   0.076530   0.028826   0.001769
    16  C   -0.090837  -0.000204  -0.028717   0.018485   0.023072   0.008236
    17  C   -0.028648  -0.000306   0.023422  -0.003115  -0.019235   0.000811
    18  Cl  -0.000562   0.000000   0.000005   0.001145  -0.000409  -0.000075
    19  C    0.007640   0.000046   0.004142  -0.023826   0.014368   0.000466
    20  C    0.005605  -0.000164   0.002263  -0.005758   0.004828  -0.000402
    21  H   -0.013391  -0.000792   0.003615  -0.002430   0.000424   0.000020
    22  H   -0.072769  -0.005528  -0.012106   0.001888  -0.000397   0.000049
    23  H    0.540232  -0.051459  -0.072168  -0.006611  -0.000511  -0.001707
    24  H    0.108104   0.249916  -0.022412   0.000051   0.000084  -0.000169
    25  H   -0.034903  -0.002674   0.454720  -0.054534  -0.003757   0.005226
    26  H    0.019423  -0.001105   0.387797  -0.064426   0.005216  -0.005151
    27  H    0.011957   0.000080  -0.009478  -0.028816   0.278505   0.019096
    28  H    0.021082  -0.001028   0.002838   0.000193   0.000138   0.000022
    29  H   -0.012966   0.000387   0.011384  -0.005315  -0.000347   0.000716
    30  H    0.012692  -0.000062  -0.002550   0.001913   0.000077   0.000125
    31  H   -0.014881  -0.000012   0.001243  -0.000052  -0.000070   0.000267
    32  H    0.001380  -0.000002   0.000486   0.000109  -0.000463  -0.000081
    33  H    0.000004   0.000000  -0.000006   0.000016  -0.000011   0.000000
    34  H    0.000055   0.000000  -0.000013  -0.000062  -0.000022   0.000000
             13         14         15         16         17         18
     1  O   -0.013760  -0.000398  -0.000796   0.059075  -0.046224  -0.000151
     2  C   -0.240126  -0.016308   0.001782  -0.130410  -1.490755   0.080208
     3  C   -0.125380  -0.017011  -0.005085   0.900571  -1.230546   0.092762
     4  C   -1.814363  -0.418711   0.386706  -0.877366   0.449927  -0.051046
     5  N    0.753504   0.091977  -0.103403  -0.142971  -0.084909  -0.000201
     6  C   -3.408251  -0.233239   0.007481  -0.422724  -0.007872  -0.003585
     7  C   -0.252478  -0.413080   0.063149  -0.090837  -0.028648  -0.000562
     8  O    0.043177   0.015914   0.000426  -0.000204  -0.000306   0.000000
     9  C   -0.342980   0.064096  -0.060490  -0.028717   0.023422   0.000005
    10  C    0.385610   0.025409   0.076530   0.018485  -0.003115   0.001145
    11  O    0.030751  -0.009511   0.028826   0.023072  -0.019235  -0.000409
    12  O   -0.019931  -0.017638   0.001769   0.008236   0.000811  -0.000075
    13  C    9.666411   0.468529  -0.003962   0.309711  -0.005220   0.006947
    14  C    0.468529   5.908574  -0.090775   0.021979   0.000192   0.000709
    15  O   -0.003962  -0.090775   8.246189  -0.097237  -0.000789  -0.000248
    16  C    0.309711   0.021979  -0.097237   8.913783   0.394445   0.230971
    17  C   -0.005220   0.000192  -0.000789   0.394445   9.683819  -0.686625
    18  Cl   0.006947   0.000709  -0.000248   0.230971  -0.686625  17.089192
    19  C   -0.083213  -0.009506  -0.004112  -0.738205  -1.868699   0.317428
    20  C    0.049538   0.003356   0.012239  -1.947805   0.004221   0.024282
    21  H   -0.001971   0.000487   0.002232  -0.020511   0.012041   0.000043
    22  H   -0.066400   0.019682   0.004612  -0.003606  -0.000603   0.000000
    23  H   -0.015541  -0.005250  -0.003468  -0.002209  -0.000248   0.000000
    24  H    0.030827   0.000591  -0.000460   0.001103   0.000096   0.000000
    25  H   -0.018756  -0.000936  -0.001389  -0.009807  -0.003453   0.000000
    26  H    0.010924   0.000195   0.000816   0.001477   0.000115   0.000001
    27  H   -0.013888  -0.003374  -0.002114  -0.000118  -0.009398  -0.000256
    28  H    0.429931  -0.036234  -0.052927   0.012364   0.001325  -0.000003
    29  H   -0.068001   0.416882  -0.002411   0.001527   0.000259   0.000000
    30  H    0.026184   0.374796  -0.002404  -0.002717  -0.001016  -0.000003
    31  H   -0.059232   0.441551   0.007644  -0.000047   0.000036   0.000000
    32  H   -0.005743  -0.002224   0.007789   0.386685  -0.082931  -0.009648
    33  H    0.000013   0.000002  -0.000005   0.021230  -0.065044  -0.004895
    34  H   -0.000027   0.000003  -0.000003  -0.025532   0.057700  -0.000993
             19         20         21         22         23         24
     1  O    0.038325  -0.387449   0.231373   0.000614   0.000005   0.000011
     2  C   -0.122612  -2.096683  -0.012985   0.005455   0.003195  -0.006391
     3  C   -1.340776  -1.128858  -0.030730   0.001201   0.001472   0.007332
     4  C   -0.508081   0.252559  -0.019386   0.002483   0.005886  -0.008840
     5  N    0.010991   0.069602   0.044170  -0.054993   0.012061   0.015290
     6  C    0.018715   0.042810   0.020127   0.511708  -0.081986  -0.087621
     7  C    0.007640   0.005605  -0.013391  -0.072769   0.540232   0.108104
     8  O    0.000046  -0.000164  -0.000792  -0.005528  -0.051459   0.249916
     9  C    0.004142   0.002263   0.003615  -0.012106  -0.072168  -0.022412
    10  C   -0.023826  -0.005758  -0.002430   0.001888  -0.006611   0.000051
    11  O    0.014368   0.004828   0.000424  -0.000397  -0.000511   0.000084
    12  O    0.000466  -0.000402   0.000020   0.000049  -0.001707  -0.000169
    13  C   -0.083213   0.049538  -0.001971  -0.066400  -0.015541   0.030827
    14  C   -0.009506   0.003356   0.000487   0.019682  -0.005250   0.000591
    15  O   -0.004112   0.012239   0.002232   0.004612  -0.003468  -0.000460
    16  C   -0.738205  -1.947805  -0.020511  -0.003606  -0.002209   0.001103
    17  C   -1.868699   0.004221   0.012041  -0.000603  -0.000248   0.000096
    18  Cl   0.317428   0.024282   0.000043   0.000000   0.000000   0.000000
    19  C   10.663379  -0.034503  -0.010386  -0.000019  -0.000015  -0.000039
    20  C   -0.034503  10.623494   0.079530   0.000820   0.000163  -0.000813
    21  H   -0.010386   0.079530   0.260891  -0.000922  -0.000010   0.000024
    22  H   -0.000019   0.000820  -0.000922   0.549434  -0.001020  -0.000324
    23  H   -0.000015   0.000163  -0.000010  -0.001020   0.536344   0.005317
    24  H   -0.000039  -0.000813   0.000024  -0.000324   0.005317   0.404152
    25  H    0.000812   0.004530  -0.000754  -0.000271   0.005706   0.002535
    26  H    0.000033   0.000027   0.000088  -0.000154  -0.009149  -0.001515
    27  H    0.001192  -0.001773  -0.000068   0.000008   0.000095   0.000000
    28  H    0.000393  -0.002288  -0.000055  -0.012544  -0.000326  -0.000053
    29  H    0.000023  -0.000145  -0.000004  -0.000258  -0.001238  -0.000070
    30  H   -0.000023  -0.000056   0.000000  -0.000177   0.000255   0.000003
    31  H   -0.000011   0.000004  -0.000002  -0.000301   0.000529  -0.000020
    32  H    0.015326   0.002066   0.000098  -0.000010  -0.000005   0.000000
    33  H    0.414172  -0.046113   0.000021   0.000000   0.000000   0.000000
    34  H   -0.097617   0.608724   0.000984   0.000000   0.000000   0.000000
             25         26         27         28         29         30
     1  O   -0.000796  -0.000024   0.000079   0.000083   0.000006   0.000001
     2  C    0.034422  -0.000281   0.012508  -0.008298  -0.000846   0.000045
     3  C   -0.017450   0.000566   0.013888   0.002961  -0.000249   0.003887
     4  C   -0.000109   0.000200   0.009647  -0.011504   0.009950  -0.015132
     5  N    0.006512   0.001258   0.000487  -0.012064  -0.004458   0.000897
     6  C   -0.006078  -0.011968  -0.001501  -0.028173   0.025085  -0.020087
     7  C   -0.034903   0.019423   0.011957   0.021082  -0.012966   0.012692
     8  O   -0.002674  -0.001105   0.000080  -0.001028   0.000387  -0.000062
     9  C    0.454720   0.387797  -0.009478   0.002838   0.011384  -0.002550
    10  C   -0.054534  -0.064426  -0.028816   0.000193  -0.005315   0.001913
    11  O   -0.003757   0.005216   0.278505   0.000138  -0.000347   0.000077
    12  O    0.005226  -0.005151   0.019096   0.000022   0.000716   0.000125
    13  C   -0.018756   0.010924  -0.013888   0.429931  -0.068001   0.026184
    14  C   -0.000936   0.000195  -0.003374  -0.036234   0.416882   0.374796
    15  O   -0.001389   0.000816  -0.002114  -0.052927  -0.002411  -0.002404
    16  C   -0.009807   0.001477  -0.000118   0.012364   0.001527  -0.002717
    17  C   -0.003453   0.000115  -0.009398   0.001325   0.000259  -0.001016
    18  Cl   0.000000   0.000001  -0.000256  -0.000003   0.000000  -0.000003
    19  C    0.000812   0.000033   0.001192   0.000393   0.000023  -0.000023
    20  C    0.004530   0.000027  -0.001773  -0.002288  -0.000145  -0.000056
    21  H   -0.000754   0.000088  -0.000068  -0.000055  -0.000004   0.000000
    22  H   -0.000271  -0.000154   0.000008  -0.012544  -0.000258  -0.000177
    23  H    0.005706  -0.009149   0.000095  -0.000326  -0.001238   0.000255
    24  H    0.002535  -0.001515   0.000000  -0.000053  -0.000070   0.000003
    25  H    0.497249  -0.030953   0.001330  -0.000006  -0.000175   0.000015
    26  H   -0.030953   0.519257  -0.000446   0.000003  -0.000132  -0.000004
    27  H    0.001330  -0.000446   0.393237  -0.000007  -0.000179   0.000036
    28  H   -0.000006   0.000003  -0.000007   0.574023   0.006588  -0.007918
    29  H   -0.000175  -0.000132  -0.000179   0.006588   0.516196  -0.026157
    30  H    0.000015  -0.000004   0.000036  -0.007918  -0.026157   0.531115
    31  H    0.000004  -0.000002   0.000004  -0.004084  -0.026656  -0.024437
    32  H   -0.000010   0.000000  -0.000263  -0.000002   0.000015  -0.000004
    33  H    0.000000   0.000000   0.000004   0.000000   0.000000   0.000000
    34  H    0.000001   0.000000   0.000000   0.000000   0.000000   0.000000
             31         32         33         34
     1  O    0.000001  -0.000492  -0.000682   0.001992
     2  C   -0.000168   0.019473   0.026832  -0.196402
     3  C    0.000163  -0.006280  -0.008902  -0.006187
     4  C   -0.009257   0.002280  -0.000109   0.008942
     5  N   -0.000513  -0.001548   0.000007  -0.000148
     6  C    0.012083   0.008239   0.000041   0.000076
     7  C   -0.014881   0.001380   0.000004   0.000055
     8  O   -0.000012  -0.000002   0.000000   0.000000
     9  C    0.001243   0.000486  -0.000006  -0.000013
    10  C   -0.000052   0.000109   0.000016  -0.000062
    11  O   -0.000070  -0.000463  -0.000011  -0.000022
    12  O    0.000267  -0.000081   0.000000   0.000000
    13  C   -0.059232  -0.005743   0.000013  -0.000027
    14  C    0.441551  -0.002224   0.000002   0.000003
    15  O    0.007644   0.007789  -0.000005  -0.000003
    16  C   -0.000047   0.386685   0.021230  -0.025532
    17  C    0.000036  -0.082931  -0.065044   0.057700
    18  Cl   0.000000  -0.009648  -0.004895  -0.000993
    19  C   -0.000011   0.015326   0.414172  -0.097617
    20  C    0.000004   0.002066  -0.046113   0.608724
    21  H   -0.000002   0.000098   0.000021   0.000984
    22  H   -0.000301  -0.000010   0.000000   0.000000
    23  H    0.000529  -0.000005   0.000000   0.000000
    24  H   -0.000020   0.000000   0.000000   0.000000
    25  H    0.000004  -0.000010   0.000000   0.000001
    26  H   -0.000002   0.000000   0.000000   0.000000
    27  H    0.000004  -0.000263   0.000004   0.000000
    28  H   -0.004084  -0.000002   0.000000   0.000000
    29  H   -0.026656   0.000015   0.000000   0.000000
    30  H   -0.024437  -0.000004   0.000000   0.000000
    31  H    0.513702  -0.000004   0.000000   0.000000
    32  H   -0.000004   0.499752  -0.000104   0.000046
    33  H    0.000000  -0.000104   0.517855  -0.004838
    34  H    0.000000   0.000046  -0.004838   0.518737
 Mulliken atomic charges:
              1
     1  O   -0.623443
     2  C   -0.095643
     3  C    0.104361
     4  C    0.537119
     5  N   -0.482008
     6  C    0.222441
     7  C    0.072794
     8  O   -0.474446
     9  C   -0.258629
    10  C    0.398464
    11  O   -0.366284
    12  O   -0.509293
    13  C    0.347166
    14  C   -0.580728
    15  O   -0.416115
    16  C   -0.763692
    17  C    1.007227
    18  Cl  -0.084989
    19  C   -0.665806
    20  C   -0.137853
    21  H    0.458229
    22  H    0.134449
    23  H    0.141663
    24  H    0.303291
    25  H    0.173749
    26  H    0.177915
    27  H    0.329526
    28  H    0.125566
    29  H    0.160589
    30  H    0.150703
    31  H    0.162519
    32  H    0.166069
    33  H    0.150507
    34  H    0.134582
 Sum of Mulliken atomic charges =   0.00000
 Mulliken charges with hydrogens summed into heavy atoms:
              1
     1  O   -0.165215
     2  C   -0.095643
     3  C    0.104361
     4  C    0.537119
     5  N   -0.482008
     6  C    0.356890
     7  C    0.214456
     8  O   -0.171154
     9  C    0.093035
    10  C    0.398464
    11  O   -0.036758
    12  O   -0.509293
    13  C    0.472732
    14  C   -0.106917
    15  O   -0.416115
    16  C   -0.597623
    17  C    1.007227
    18  Cl  -0.084989
    19  C   -0.515299
    20  C   -0.003271
 Sum of Mulliken charges with hydrogens summed into heavy atoms =   0.00000
 Electronic spatial extent (au):  <R**2>=           6239.8696
 Charge=              0.0000 electrons
 Dipole moment (field-independent basis, Debye):
    X=              0.5864    Y=              0.3808    Z=             -1.4436  Tot=              1.6040
 Quadrupole moment (field-independent basis, Debye-Ang):
   XX=           -134.8087   YY=           -129.4082   ZZ=           -120.0963
   XY=             -2.6759   XZ=            -10.3506   YZ=              6.4498
 Traceless Quadrupole moment (field-independent basis, Debye-Ang):
   XX=             -6.7043   YY=             -1.3038   ZZ=              8.0081
   XY=             -2.6759   XZ=            -10.3506   YZ=              6.4498
 Octapole moment (field-independent basis, Debye-Ang**2):
  XXX=            -34.0698  YYY=             -2.0761  ZZZ=              1.1581  XYY=             -2.0014
  XXY=             26.8774  XXZ=             -6.1338  XZZ=             17.4079  YZZ=             -3.9679
  YYZ=             -5.8434  XYZ=             17.0774
 Hexadecapole moment (field-independent basis, Debye-Ang**3):
 XXXX=          -6075.7712 YYYY=          -1636.4915 ZZZZ=           -916.2056 XXXY=           -239.7165
 XXXZ=            -92.9850 YYYX=             96.9698 YYYZ=             32.4856 ZZZX=            -25.5396
 ZZZY=              3.4732 XXYY=          -1197.3677 XXZZ=          -1101.8754 YYZZ=           -440.3698
 XXYZ=             76.7079 YYXZ=            -61.0114 ZZXY=             37.4779
 N-N= 1.775137366901D+03 E-N=-6.829745080214D+03  KE= 1.390578338896D+03
 1\1\GINC-PROD2-0155\SP\RB3LYP\6-311+G(2d,p)\C13H14Cl1N1O5\YUHENG\26-Ma
 r-2019\0\\# b3lyp/6-311+G(2d,p) nmr guess=read geom=check integral(ult
 rafinegrid) scrf=(iefpcm,read,solvent=methanol)\\Candidate Structure: 
 1b, Conformer: 11, NMR calculation with methanol solvation\\0,1\O,0,-0
 .6713063583,2.8095770139,-0.1312898562\C,0,-1.5489204939,1.793327528,-
 0.1111674359\C,0,-1.1901151924,0.4734407924,-0.4503331425\C,0,0.193420
 6893,0.1819721003,-0.8139882093\N,0,1.1176466127,1.0681782686,-0.92075
 90481\C,0,2.3704557417,0.3409049284,-1.1766770406\C,0,3.3163746146,0.4
 195863943,0.0473744958\O,0,4.1507424601,1.5600235443,-0.0701676936\C,0
 ,2.6283134416,0.4855083432,1.4245303983\C,0,1.8539680928,-0.7464990023
 ,1.822794113\O,0,0.5501900421,-0.5121847053,1.9952261204\O,0,2.3398952
 626,-1.8559594871,1.9095789158\C,0,1.8564584501,-1.0397930565,-1.64189
 37973\C,0,2.6491710855,-2.2840353005,-1.3202354011\O,0,0.5320377507,-1
 .1021189413,-1.041922004\C,0,-2.1440644374,-0.5510489835,-0.4078635643
 \C,0,-3.4413211016,-0.2555610215,-0.0319275117\Cl,0,-4.6362826797,-1.5
 328818185,0.0245599373\C,0,-3.8140071676,1.0483808114,0.3062786838\C,0
 ,-2.8711621623,2.0641479275,0.2660908061\H,0,0.2122755174,2.461586919,
 -0.4174073256\H,0,2.9146503735,0.8165974129,-1.9983377359\H,0,3.995724
 6878,-0.439340382,0.0193148843\H,0,3.594460377,2.3547940329,-0.1489172
 273\H,0,1.9804704973,1.3636524992,1.4681593056\H,0,3.4297786415,0.5986
 363553,2.1602294227\H,0,0.0982734951,-1.3555868772,2.210494812\H,0,1.6
 822556689,-0.981675949,-2.7234821784\H,0,2.7860078353,-2.4148846956,-0
 .246263418\H,0,2.1365628172,-3.1612879318,-1.7210263251\H,0,3.63066808
 94,-2.2188812871,-1.7997586114\H,0,-1.8546783766,-1.5645792949,-0.6681
 885918\H,0,-4.8379620005,1.2621949392,0.5982342012\H,0,-3.1391109775,3
 .0838291292,0.5254449657\\Version=EM64L-G09RevB.01\State=1-A\HF=-1395.
 2474617\RMSD=4.590e-09\Dipole=0.2307082,0.1498215,-0.5679435\Quadrupol
 e=-4.9844999,-0.9693486,5.9538485,-1.9894743,-7.6954133,4.7952889\PG=C
 01 [X(C13H14Cl1N1O5)]\\@


 If your ship doesn't come in, swim out to it!
                          -- Jonathan Winters
 Job cpu time:  0 days  2 hours 52 minutes  1.0 seconds.
 File lengths (MBytes):  RWF=    325 Int=      0 D2E=      0 Chk=     29 Scr=      1
 Normal termination of Gaussian 09 at Tue Mar 26 02:55:39 2019.
