 Entering Gaussian System, Link 0=g09
 Initial command:
 /home/yuheng/proj/yuheng/g09/l1.exe /home/yuheng/proj/yuheng/g09_scratch/Gau-206960.inp -scrdir=/home/yuheng/proj/yuheng/g09_scratch/
 Entering Link 1 = /home/yuheng/proj/yuheng/g09/l1.exe PID=    206961.
  
 Copyright (c) 1988,1990,1992,1993,1995,1998,2003,2009,2010,
            Gaussian, Inc.  All Rights Reserved.
  
 This is part of the Gaussian(R) 09 program.  It is based on
 the Gaussian(R) 03 system (copyright 2003, Gaussian, Inc.),
 the Gaussian(R) 98 system (copyright 1998, Gaussian, Inc.),
 the Gaussian(R) 94 system (copyright 1995, Gaussian, Inc.),
 the Gaussian 92(TM) system (copyright 1992, Gaussian, Inc.),
 the Gaussian 90(TM) system (copyright 1990, Gaussian, Inc.),
 the Gaussian 88(TM) system (copyright 1988, Gaussian, Inc.),
 the Gaussian 86(TM) system (copyright 1986, Carnegie Mellon
 University), and the Gaussian 82(TM) system (copyright 1983,
 Carnegie Mellon University). Gaussian is a federally registered
 trademark of Gaussian, Inc.
  
 This software contains proprietary and confidential information,
 including trade secrets, belonging to Gaussian, Inc.
  
 This software is provided under written license and may be
 used, copied, transmitted, or stored only in accord with that
 written license.
  
 The following legend is applicable only to US Government
 contracts under FAR:
  
                    RESTRICTED RIGHTS LEGEND
  
 Use, reproduction and disclosure by the US Government is
 subject to restrictions as set forth in subparagraphs (a)
 and (c) of the Commercial Computer Software - Restricted
 Rights clause in FAR 52.227-19.
  
 Gaussian, Inc.
 340 Quinnipiac St., Bldg. 40, Wallingford CT 06492
  
  
 ---------------------------------------------------------------
 Warning -- This program may not be used in any manner that
 competes with the business of Gaussian, Inc. or will provide
 assistance to any competitor of Gaussian, Inc.  The licensee
 of this program is prohibited from giving any competitor of
 Gaussian, Inc. access to this program.  By using this program,
 the user acknowledges that Gaussian, Inc. is engaged in the
 business of creating and licensing software in the field of
 computational chemistry and represents and warrants to the
 licensee that it is not a competitor of Gaussian, Inc. and that
 it will not use this program in any manner prohibited above.
 ---------------------------------------------------------------
  

 Cite this work as:
 Gaussian 09, Revision B.01,
 M. J. Frisch, G. W. Trucks, H. B. Schlegel, G. E. Scuseria, 
 M. A. Robb, J. R. Cheeseman, G. Scalmani, V. Barone, B. Mennucci, 
 G. A. Petersson, H. Nakatsuji, M. Caricato, X. Li, H. P. Hratchian, 
 A. F. Izmaylov, J. Bloino, G. Zheng, J. L. Sonnenberg, M. Hada, 
 M. Ehara, K. Toyota, R. Fukuda, J. Hasegawa, M. Ishida, T. Nakajima, 
 Y. Honda, O. Kitao, H. Nakai, T. Vreven, J. A. Montgomery, Jr., 
 J. E. Peralta, F. Ogliaro, M. Bearpark, J. J. Heyd, E. Brothers, 
 K. N. Kudin, V. N. Staroverov, T. Keith, R. Kobayashi, J. Normand, 
 K. Raghavachari, A. Rendell, J. C. Burant, S. S. Iyengar, J. Tomasi, 
 M. Cossi, N. Rega, J. M. Millam, M. Klene, J. E. Knox, J. B. Cross, 
 V. Bakken, C. Adamo, J. Jaramillo, R. Gomperts, R. E. Stratmann, 
 O. Yazyev, A. J. Austin, R. Cammi, C. Pomelli, J. W. Ochterski, 
 R. L. Martin, K. Morokuma, V. G. Zakrzewski, G. A. Voth, 
 P. Salvador, J. J. Dannenberg, S. Dapprich, A. D. Daniels, 
 O. Farkas, J. B. Foresman, J. V. Ortiz, J. Cioslowski, 
 and D. J. Fox, Gaussian, Inc., Wallingford CT, 2010.
 
 ******************************************
 Gaussian 09:  EM64L-G09RevB.01 12-Aug-2010
                26-Mar-2019 
 ******************************************
 %mem=16gb
 %nprocshared=20
 Will use up to   20 processors via shared memory.
 %chk=1b-conf-8.chk
 ----------------------------------------------------------------------
 # b3lyp/6-311+G(2d,p) nmr guess=read geom=check integral(ultrafinegrid
 ) scrf=(iefpcm,read,solvent=methanol)
 ----------------------------------------------------------------------
 1/29=2,38=1,40=2/1;
 2/12=2,40=1/2;
 3/5=4,6=6,7=112,11=2,14=-4,16=1,25=1,30=1,70=2203,72=3,74=-5,75=-5,116=-2/1,2,8,3;
 4/5=1/1;
 5/5=2,38=6,53=3/2;
 8/6=1,10=90,11=11/1;
 10/13=100,45=16/2;
 6/7=2,8=2,9=2,10=2,28=1/1;
 99/9=1/99;
 ----------------------------------------------------------------------
 Candidate Structure: 1b, Conformer: 8, NMR calculation with methanol s
 olvation
 ----------------------------------------------------------------------
 Redundant internal coordinates taken from checkpoint file:
 1b-conf-8.chk
 Charge =  0 Multiplicity = 1
 O,0,0.994347257,-2.2955482076,-1.4523407597
 C,0,1.8635026725,-1.4959638765,-0.8147810834
 C,0,1.5725532201,-0.1526497686,-0.4976930663
 C,0,0.2720552852,0.4051810747,-0.8629999587
 N,0,-0.6373224224,-0.2279362928,-1.5130727014
 C,0,-1.8296024774,0.6342688403,-1.5223459313
 C,0,-2.9064359894,0.057537804,-0.5865822064
 O,0,-3.5373060521,-1.0612334925,-1.1812093132
 C,0,-2.3644688798,-0.3254975766,0.7972947919
 C,0,-3.4786315892,-0.7848708902,1.7021907366
 O,0,-4.4212322617,0.1540459498,1.8539334915
 O,0,-3.5350041698,-1.8675819897,2.2423721635
 C,0,-1.2498136199,2.0158148117,-1.1480618441
 C,0,-2.0695288799,2.9576203218,-0.2936127511
 O,0,-0.0125533939,1.6603764553,-0.4642436601
 C,0,2.5193349054,0.635360692,0.1716074864
 C,0,3.7390126065,0.0849884798,0.5176439738
 Cl,0,4.9248550742,1.0643007578,1.3509833311
 C,0,4.0406368662,-1.2447443617,0.2111066298
 C,0,3.1076663856,-2.0269705541,-0.4504967404
 H,0,0.1668363625,-1.7819146454,-1.6414253195
 H,0,-2.2684229236,0.6638714471,-2.5244717422
 H,0,-3.6984594676,0.8058536458,-0.4756900587
 H,0,-2.8692589511,-1.7490174567,-1.3543093964
 H,0,-1.8613734381,0.525602393,1.2709698507
 H,0,-1.6457388902,-1.1436753515,0.7082063311
 H,0,-5.1240978902,-0.1886698123,2.4452935153
 H,0,-0.9454825077,2.5238976846,-2.071458089
 H,0,-2.3547654095,2.5147342065,0.6631401059
 H,0,-1.4979354716,3.8671809973,-0.096350363
 H,0,-2.9790330247,3.2386406824,-0.8323144252
 H,0,2.2858007538,1.6687475453,0.4096332576
 H,0,5.0038897275,-1.6611606254,0.4920038658
 H,0,3.3230677547,-3.0625692445,-0.6961508493
 Recover connectivity data from disk.
                          Input orientation:                          
 ---------------------------------------------------------------------
 Center     Atomic      Atomic             Coordinates (Angstroms)
 Number     Number       Type             X           Y           Z
 ---------------------------------------------------------------------
      1          8           0        0.994347   -2.295548   -1.452341
      2          6           0        1.863503   -1.495964   -0.814781
      3          6           0        1.572553   -0.152650   -0.497693
      4          6           0        0.272055    0.405181   -0.863000
      5          7           0       -0.637322   -0.227936   -1.513073
      6          6           0       -1.829602    0.634269   -1.522346
      7          6           0       -2.906436    0.057538   -0.586582
      8          8           0       -3.537306   -1.061233   -1.181209
      9          6           0       -2.364469   -0.325498    0.797295
     10          6           0       -3.478632   -0.784871    1.702191
     11          8           0       -4.421232    0.154046    1.853933
     12          8           0       -3.535004   -1.867582    2.242372
     13          6           0       -1.249814    2.015815   -1.148062
     14          6           0       -2.069529    2.957620   -0.293613
     15          8           0       -0.012553    1.660376   -0.464244
     16          6           0        2.519335    0.635361    0.171607
     17          6           0        3.739013    0.084988    0.517644
     18         17           0        4.924855    1.064301    1.350983
     19          6           0        4.040637   -1.244744    0.211107
     20          6           0        3.107666   -2.026971   -0.450497
     21          1           0        0.166836   -1.781915   -1.641425
     22          1           0       -2.268423    0.663871   -2.524472
     23          1           0       -3.698459    0.805854   -0.475690
     24          1           0       -2.869259   -1.749017   -1.354309
     25          1           0       -1.861373    0.525602    1.270970
     26          1           0       -1.645739   -1.143675    0.708206
     27          1           0       -5.124098   -0.188670    2.445294
     28          1           0       -0.945483    2.523898   -2.071458
     29          1           0       -2.354765    2.514734    0.663140
     30          1           0       -1.497935    3.867181   -0.096350
     31          1           0       -2.979033    3.238641   -0.832314
     32          1           0        2.285801    1.668748    0.409633
     33          1           0        5.003890   -1.661161    0.492004
     34          1           0        3.323068   -3.062569   -0.696151
 ---------------------------------------------------------------------
                    Distance matrix (angstroms):
                    1          2          3          4          5
     1  O    0.000000
     2  C    1.342106   0.000000
     3  C    2.416131   1.410563   0.000000
     4  C    2.857091   2.479795   1.461478   0.000000
     5  N    2.634588   2.889573   2.433149   1.284679   0.000000
     6  C    4.069818   4.321755   3.639206   2.214539   1.471399
     7  C    4.637096   5.021728   4.484799   3.209372   2.467541
     8  O    4.704564   5.430653   5.234824   4.094248   3.035527
     9  C    4.497066   4.673813   4.148134   3.200270   2.886235
    10  C    5.678094   5.948042   5.545598   4.697242   4.326792
    11  O    6.801504   7.024419   6.445904   5.428788   5.079431
    12  O    5.860809   6.215156   6.044509   5.413177   5.018801
    13  C    4.869979   4.704934   3.618145   2.234163   2.354315
    14  C    6.190781   5.964459   4.793766   3.510294   3.699469
    15  O    4.199943   3.688488   2.408474   1.347414   2.248578
    16  C    3.681443   2.438365   1.401898   2.484685   3.680749
    17  C    4.132915   2.791470   2.404356   3.745463   4.834671
    18  Cl   5.881845   4.540635   4.017026   5.194681   6.388311
    19  C    3.626448   2.419808   2.790431   4.251843   5.088221
    20  C    2.354133   1.400933   2.423196   3.758485   4.288418
    21  H    0.992142   1.908870   2.436938   2.323877   1.754421
    22  H    4.533575   4.965958   4.419009   3.046545   2.116303
    23  H    5.709201   6.028994   5.357498   4.009431   3.393441
    24  H    3.903301   4.770132   4.797070   3.840548   2.705630
    25  H    4.850820   4.723536   3.921740   3.019908   3.133212
    26  H    3.600671   3.841663   3.576832   2.923282   2.605679
    27  H    7.554195   7.820720   7.314889   6.357353   5.983424
    28  H    5.231950   5.062502   3.997643   2.726120   2.824774
    29  H    6.231423   6.005309   4.887362   3.698581   3.899712
    30  H    6.784498   6.370144   5.074250   3.963087   4.417889
    31  H    6.841011   6.772514   5.685926   4.312657   4.238419
    32  H    4.566228   3.419492   2.156259   2.696547   3.979806
    33  H    4.501039   3.405438   3.876748   5.338170   6.156114
    34  H    2.565752   2.144448   3.401664   4.621884   4.938339
                    6          7          8          9         10
     6  C    0.000000
     7  C    1.538780   0.000000
     8  O    2.430505   1.415354   0.000000
     9  C    2.566703   1.534783   2.414815   0.000000
    10  C    3.889845   2.505103   2.897208   1.507056   0.000000
    11  O    4.283272   2.874028   3.386786   2.361509   1.339062
    12  O    4.831227   3.479104   3.517259   2.415870   1.211296
    13  C    1.544316   2.625739   3.834312   3.241699   4.575523
    14  C    2.639188   3.032610   4.369598   3.472165   4.469345
    15  O    2.339689   3.310380   4.510552   3.326662   4.763021
    16  C    4.667198   5.508877   6.433618   5.016600   6.351011
    17  C    5.955900   6.736621   7.559414   6.123658   7.365745
    18  Cl   7.352798   8.129997   9.085046   7.441260   8.611700
    19  C    6.402754   7.112951   7.706973   6.497231   7.679467
    20  C    5.710313   6.366563   6.754424   5.864832   7.039616
    21  H    3.136541   3.733803   3.801559   3.804736   5.046117
    22  H    1.094393   2.128407   2.527925   3.467306   4.629053
    23  H    2.148850   1.095251   2.002434   2.163325   2.705900
    24  H    2.605605   1.963270   0.974319   2.628806   3.262377
    25  H    2.795609   2.182141   3.367489   1.096287   2.125751
    26  H    2.858366   2.169965   2.674830   1.092668   2.115713
    27  H    5.222364   3.764427   4.053492   3.217169   1.901372
    28  H    2.157288   3.483264   4.512567   4.285128   5.621852
    29  H    2.930579   2.811398   4.193754   2.843415   3.637320
    30  H    3.548970   4.091159   5.442906   4.373561   5.366516
    31  H    2.929179   3.191406   4.349979   3.966913   4.781418
    32  H    4.662535   5.527003   6.625115   5.074673   6.396845
    33  H    7.484866   8.166427   8.724195   7.494659   8.613107
    34  H    6.395250   6.968055   7.162776   6.486140   7.563271
                   11         12         13         14         15
    11  O    0.000000
    12  O    2.241264   0.000000
    13  C    4.747216   5.638963   0.000000
    14  C    4.242934   5.644592   1.512949   0.000000
    15  O    5.203790   5.672735   1.457654   2.437848   0.000000
    16  C    7.157748   6.870794   4.225359   5.164009   2.804536
    17  C    8.269222   7.726483   5.602772   6.530644   4.185714
    18  Cl   9.403769   8.997762   6.728829   7.430394   5.294181
    19  C    8.732624   7.867929   6.361403   7.432949   5.032313
    20  C    8.170162   7.169520   5.984843   7.188471   4.830371
    21  H    6.084065   5.366083   4.083265   5.411203   3.642431
    22  H    4.905603   5.543941   2.181701   3.205866   3.213489
    23  H    2.524757   3.815998   2.812820   2.704934   3.783681
    24  H    4.040185   3.659698   4.103548   4.890510   4.536182
    25  H    2.651561   3.077660   2.906278   2.899303   2.777915
    26  H    3.271106   2.539100   3.685765   4.243096   3.450310
    27  H    0.980398   2.320591   5.725560   5.170217   6.165409
    28  H    5.753758   6.678312   1.097008   2.147633   2.049186
    29  H    3.355760   4.805375   2.179516   1.092192   2.736216
    30  H    5.112401   6.519722   2.143646   1.092214   2.685459
    31  H    4.337118   5.986344   2.141308   1.093787   3.380295
    32  H    7.025996   7.053108   3.879103   4.596155   2.458895
    33  H    9.694470   8.718894   7.437659   8.484314   6.091939
    34  H    8.764915   7.556194   6.848756   8.092269   5.786740
                   16         17         18         19         20
    16  C    0.000000
    17  C    1.382123   0.000000
    18  Cl   2.713198   1.749208   0.000000
    19  C    2.418825   1.397545   2.722655   0.000000
    20  C    2.796633   2.407543   4.012912   1.385652   0.000000
    21  H    3.829433   4.572456   6.300333   4.327442   3.182270
    22  H    5.494750   6.758613   8.180632   7.136557   6.359586
    23  H    6.253721   7.538060   8.818451   8.035562   7.372169
    24  H    6.086922   7.108941   8.716741   7.102920   6.051262
    25  H    4.517881   5.667977   6.808046   6.252293   5.845548
    26  H    4.560784   5.526434   6.961395   5.708957   4.971686
    27  H    8.016903   9.074439  10.185721   9.492062   8.917785
    28  H    4.539039   5.881855   6.950136   6.653882   6.306024
    29  H    5.246952   6.561933   7.454513   7.432307   7.190649
    30  H    5.162841   6.489036   7.155638   7.543348   7.488525
    31  H    6.165791   7.543212   8.483277   8.394357   8.057317
    32  H    1.085856   2.152158   2.866375   3.406948   3.882476
    33  H    3.398482   2.156295   2.858712   1.086353   2.148904
    34  H    3.882483   3.399033   4.877247   2.154648   1.085914
                   21         22         23         24         25
    21  H    0.000000
    22  H    3.562601   0.000000
    23  H    4.795414   2.502533   0.000000
    24  H    3.049818   2.748148   2.826112   0.000000
    25  H    4.233239   3.819710   2.550342   3.616880   0.000000
    26  H    3.035383   3.755685   3.068540   2.473340   1.774736
    27  H    6.872677   5.794849   3.399069   4.685719   3.540423
    28  H    4.467908   2.327035   3.616218   4.740572   4.000483
    29  H    5.489143   3.687007   2.454123   4.744932   2.137648
    30  H    6.088596   4.092752   3.789186   5.916475   3.628746
    31  H    5.979727   3.161930   2.561876   5.016100   3.610200
    32  H    4.539154   5.509964   6.110626   6.431738   4.387224
    33  H    5.288023   8.209228   9.096894   8.087216   7.247107
    34  H    3.534886   6.963755   8.019672   6.364236   6.604769
                   26         27         28         29         30
    26  H    0.000000
    27  H    4.003560   0.000000
    28  H    4.654888   6.724574   0.000000
    29  H    3.726756   4.260712   3.076392   0.000000
    30  H    5.077188   6.004909   2.451666   1.772031   0.000000
    31  H    4.832760   5.204851   2.486295   1.774862   1.769281
    32  H    4.843126   7.905726   4.162726   4.723856   4.405200
    33  H    6.673237  10.419199   7.712398   8.462694   8.554674
    34  H    5.508485   9.459523   7.163840   8.074142   8.463053
                   31         32         33         34
    31  H    0.000000
    32  H    5.632537   0.000000
    33  H    9.459859   4.299195   0.000000
    34  H    8.912927   4.968304   2.490145   0.000000
 Stoichiometry    C13H14ClNO5
 Framework group  C1[X(C13H14ClNO5)]
 Deg. of freedom    96
 Full point group                 C1      NOp   1
 Largest Abelian subgroup         C1      NOp   1
 Largest concise Abelian subgroup C1      NOp   1
                         Standard orientation:                         
 ---------------------------------------------------------------------
 Center     Atomic      Atomic             Coordinates (Angstroms)
 Number     Number       Type             X           Y           Z
 ---------------------------------------------------------------------
      1          8           0        0.994347   -2.295548   -1.452341
      2          6           0        1.863503   -1.495964   -0.814781
      3          6           0        1.572553   -0.152650   -0.497693
      4          6           0        0.272055    0.405181   -0.863000
      5          7           0       -0.637322   -0.227936   -1.513073
      6          6           0       -1.829602    0.634269   -1.522346
      7          6           0       -2.906436    0.057538   -0.586582
      8          8           0       -3.537306   -1.061233   -1.181209
      9          6           0       -2.364469   -0.325498    0.797295
     10          6           0       -3.478632   -0.784871    1.702191
     11          8           0       -4.421232    0.154046    1.853933
     12          8           0       -3.535004   -1.867582    2.242372
     13          6           0       -1.249814    2.015815   -1.148062
     14          6           0       -2.069529    2.957620   -0.293613
     15          8           0       -0.012553    1.660376   -0.464244
     16          6           0        2.519335    0.635361    0.171607
     17          6           0        3.739013    0.084988    0.517644
     18         17           0        4.924855    1.064301    1.350983
     19          6           0        4.040637   -1.244744    0.211107
     20          6           0        3.107666   -2.026971   -0.450497
     21          1           0        0.166836   -1.781915   -1.641425
     22          1           0       -2.268423    0.663871   -2.524472
     23          1           0       -3.698459    0.805854   -0.475690
     24          1           0       -2.869259   -1.749017   -1.354309
     25          1           0       -1.861373    0.525602    1.270970
     26          1           0       -1.645739   -1.143675    0.708206
     27          1           0       -5.124098   -0.188670    2.445294
     28          1           0       -0.945483    2.523898   -2.071458
     29          1           0       -2.354765    2.514734    0.663140
     30          1           0       -1.497935    3.867181   -0.096350
     31          1           0       -2.979033    3.238641   -0.832314
     32          1           0        2.285801    1.668748    0.409633
     33          1           0        5.003890   -1.661161    0.492004
     34          1           0        3.323068   -3.062569   -0.696151
 ---------------------------------------------------------------------
 Rotational constants (GHZ):      0.5014937      0.1585698      0.1519049
 Standard basis: 6-311+G(2d,p) (5D, 7F)
 There are   632 symmetry adapted basis functions of A   symmetry.
 Integral buffers will be    131072 words long.
 Raffenetti 2 integral format.
 Two-electron integral symmetry is turned on.
   632 basis functions,   969 primitive gaussians,   672 cartesian basis functions
    78 alpha electrons       78 beta electrons
       nuclear repulsion energy      1706.3490999479 Hartrees.
 NAtoms=   34 NActive=   34 NUniq=   34 SFac= 1.00D+00 NAtFMM=   50 NAOKFM=F Big=F
 Using the following non-standard input for PCM:
 radii=bondi
 --- end of non-standard input.
 ------------------------------------------------------------------------------
 Polarizable Continuum Model (PCM)
 =================================
 Model                : PCM.
 Atomic radii         : Bondi.
 Polarization charges : Total charges.
 Charge compensation  : None.
 Solution method      : Matrix inversion.
 Cavity type          : Scaled VdW (van der Waals Surface) (Alpha=1.100).
 Cavity algorithm     : GePol (No added spheres)
                        Default sphere list used, NSphG=   34.
                        Lebedev-Laikov grids with approx.  5.0 points / Ang**2.
                        Smoothing algorithm: Karplus/York (Gamma=1.0000).
                        Polarization charges: spherical gaussians, with
                                              point-specific exponents (IZeta= 3).
                        Self-potential: point-specific (ISelfS= 7).
                        Self-field    : sphere-specific E.n sum rule (ISelfD= 2).
 Solvent              : Methanol, Eps=  32.613000 Eps(inf)=   1.765709
 ------------------------------------------------------------------------------
 One-electron integrals computed using PRISM.
 NBasis=   632 RedAO= T  NBF=   632
 NBsUse=   630 1.00D-06 NBFU=   630
 Initial guess read from the checkpoint file:  1b-conf-8.chk
 B after Tr=     0.000000    0.000000    0.000000
         Rot=    1.000000    0.000000    0.000000    0.000000 Ang=   0.00 deg.
 Initial guess orbital symmetries:
       Occupied  (A) (A) (A) (A) (A) (A) (A) (A) (A) (A) (A) (A)
                 (A) (A) (A) (A) (A) (A) (A) (A) (A) (A) (A) (A)
                 (A) (A) (A) (A) (A) (A) (A) (A) (A) (A) (A) (A)
                 (A) (A) (A) (A) (A) (A) (A) (A) (A) (A) (A) (A)
                 (A) (A) (A) (A) (A) (A) (A) (A) (A) (A) (A) (A)
                 (A) (A) (A) (A) (A) (A) (A) (A) (A) (A) (A) (A)
                 (A) (A) (A) (A) (A) (A)
       Virtual   (A) (A) (A) (A) (A) (A) (A) (A) (A) (A) (A) (A)
                 (A) (A) (A) (A) (A) (A) (A) (A) (A) (A) (A) (A)
                 (A) (A) (A) (A) (A) (A) (A) (A) (A) (A) (A) (A)
                 (A) (A) (A) (A) (A) (A) (A) (A) (A) (A) (A) (A)
                 (A) (A) (A) (A) (A) (A) (A) (A) (A) (A) (A) (A)
                 (A) (A) (A) (A) (A) (A) (A) (A) (A) (A) (A) (A)
                 (A) (A) (A) (A) (A) (A) (A) (A) (A) (A) (A) (A)
                 (A) (A) (A) (A) (A) (A) (A) (A) (A) (A) (A) (A)
                 (A) (A) (A) (A) (A) (A) (A) (A) (A) (A) (A) (A)
                 (A) (A) (A) (A) (A) (A) (A) (A) (A) (A) (A) (A)
                 (A) (A) (A) (A) (A) (A) (A) (A) (A) (A) (A) (A)
                 (A) (A) (A) (A) (A) (A) (A) (A) (A) (A) (A) (A)
                 (A) (A) (A) (A) (A) (A) (A) (A) (A) (A) (A) (A)
                 (A) (A) (A) (A) (A) (A) (A) (A) (A) (A) (A) (A)
                 (A) (A) (A) (A) (A) (A) (A) (A) (A) (A) (A) (A)
                 (A) (A) (A) (A) (A) (A) (A) (A) (A) (A) (A) (A)
                 (A) (A) (A) (A) (A) (A) (A) (A) (A) (A) (A) (A)
                 (A) (A) (A) (A) (A) (A) (A) (A) (A) (A) (A) (A)
                 (A) (A) (A) (A) (A) (A) (A) (A) (A) (A) (A) (A)
                 (A) (A) (A) (A) (A) (A) (A) (A) (A) (A) (A) (A)
                 (A) (A) (A) (A) (A) (A) (A) (A) (A) (A) (A) (A)
                 (A) (A) (A) (A) (A) (A) (A) (A) (A) (A) (A) (A)
                 (A) (A) (A) (A) (A) (A) (A) (A) (A) (A) (A) (A)
                 (A) (A) (A) (A) (A) (A) (A) (A) (A) (A) (A) (A)
                 (A) (A) (A) (A) (A) (A) (A) (A) (A) (A) (A) (A)
                 (A) (A) (A) (A) (A) (A) (A) (A) (A) (A) (A) (A)
                 (A) (A) (A) (A) (A) (A) (A) (A) (A) (A) (A) (A)
                 (A) (A) (A) (A) (A) (A) (A) (A) (A) (A) (A) (A)
                 (A) (A) (A) (A) (A) (A) (A) (A) (A) (A) (A) (A)
                 (A) (A) (A) (A) (A) (A) (A) (A) (A) (A) (A) (A)
                 (A) (A) (A) (A) (A) (A) (A) (A) (A) (A) (A) (A)
                 (A) (A) (A) (A) (A) (A) (A) (A) (A) (A) (A) (A)
                 (A) (A) (A) (A) (A) (A) (A) (A) (A) (A) (A) (A)
                 (A) (A) (A) (A) (A) (A) (A) (A) (A) (A) (A) (A)
                 (A) (A) (A) (A) (A) (A) (A) (A) (A) (A) (A) (A)
                 (A) (A) (A) (A) (A) (A) (A) (A) (A) (A) (A) (A)
                 (A) (A) (A) (A) (A) (A) (A) (A) (A) (A) (A) (A)
                 (A) (A) (A) (A) (A) (A) (A) (A) (A) (A) (A) (A)
                 (A) (A) (A) (A) (A) (A) (A) (A) (A) (A) (A) (A)
                 (A) (A) (A) (A) (A) (A) (A) (A) (A) (A) (A) (A)
                 (A) (A) (A) (A) (A) (A) (A) (A) (A) (A) (A) (A)
                 (A) (A) (A) (A) (A) (A) (A) (A) (A) (A) (A) (A)
                 (A) (A) (A) (A) (A) (A) (A) (A) (A) (A) (A) (A)
                 (A) (A) (A) (A) (A) (A) (A) (A) (A) (A) (A) (A)
                 (A) (A) (A) (A) (A) (A) (A) (A) (A) (A) (A) (A)
                 (A) (A) (A) (A) (A) (A) (A) (A) (A) (A) (A) (A)
 Requested convergence on RMS density matrix=1.00D-08 within 128 cycles.
 Requested convergence on MAX density matrix=1.00D-06.
 Requested convergence on             energy=1.00D-06.
 No special actions if energy rises.
 Error on total polarization charges =  0.05082
 SCF Done:  E(RB3LYP) =  -1395.25539778     A.U. after   12 cycles
             Convg  =    0.8983D-08             -V/T =  2.0034
 Range of M.O.s used for correlation:     1   630
 NBasis=   632 NAE=    78 NBE=    78 NFC=     0 NFV=     0
 NROrb=    630 NOA=    78 NOB=    78 NVA=   552 NVB=   552

 **** Warning!!: The largest alpha MO coefficient is  0.13607693D+03

 NEqPCM:  Using equilibrium solvation (IEInf=0, Eps=  32.6130, EpsInf=   1.7657)
          Differentiating once with respect to magnetic field using GIAOs.
          Electric field/nuclear overlap derivatives assumed to be zero.
 FoFCou: FMM=F IPFlag=           0 FMFlag=    10101102 FMFlg1=           0
         NFxFlg=    40000000 DoJE=F BraDBF=F KetDBF=T FulRan=T
         Omega=  0.000000  0.000000  1.000000  0.000000  0.000000 ICntrl=    6100 IOpCl=  0
         NMat0=    1 NMatS0=    1 NMatT0=    0 NMatD0=    1 NMtDS0=    0 NMtDT0=    0
         I1Cent=           7 NGrid=        2449.
 Symmetry not used in FoFCou.
          There are     3 degrees of freedom in the 1st order CPHF.  IDoFFX=0.
      3 vectors produced by pass  0 Test12= 1.44D-12 3.33D-08 XBig12= 4.35D+02 7.38D+00.
 AX will form     3 AO Fock derivatives at one time.
      3 vectors produced by pass  1 Test12= 1.44D-12 3.33D-08 XBig12= 8.15D-01 3.02D-01.
      3 vectors produced by pass  2 Test12= 1.44D-12 3.33D-08 XBig12= 3.34D-03 3.45D-02.
      3 vectors produced by pass  3 Test12= 1.44D-12 3.33D-08 XBig12= 1.23D-05 1.60D-03.
      3 vectors produced by pass  4 Test12= 1.44D-12 3.33D-08 XBig12= 7.18D-08 9.42D-05.
      3 vectors produced by pass  5 Test12= 1.44D-12 3.33D-08 XBig12= 2.36D-10 3.09D-06.
      3 vectors produced by pass  6 Test12= 1.44D-12 3.33D-08 XBig12= 6.75D-13 1.12D-07.
 Inverted reduced A of dimension    21 with in-core refinement.
 Calculating GIAO nuclear magnetic shielding tensors.
 SCF GIAO Magnetic shielding tensor (ppm):
  1  O    Isotropic =   185.7705   Anisotropy =   136.2198
   XX=   166.1421   YX=    54.0024   ZX=   -32.6693
   XY=    33.0971   YY=   149.6337   ZY=   -25.6116
   XZ=   -49.8503   YZ=   -34.7003   ZZ=   241.5358
   Eigenvalues:   113.4658   167.2619   276.5837
  2  C    Isotropic =    16.2593   Anisotropy =   151.6284
   XX=   -10.8731   YX=   -10.2076   ZX=   -59.4992
   XY=    -9.1140   YY=   -15.7263   ZY=   -47.2833
   XZ=   -58.9413   YZ=   -49.6011   ZZ=    75.3774
   Eigenvalues:   -64.4561    -4.1109   117.3449
  3  C    Isotropic =    66.3926   Anisotropy =   141.5055
   XX=    25.5494   YX=    31.8478   ZX=   -48.6273
   XY=    21.9006   YY=    44.2521   ZY=   -29.2622
   XZ=   -52.2618   YZ=   -25.3111   ZZ=   129.3764
   Eigenvalues:    -0.7633    39.2115   160.7296
  4  C    Isotropic =     8.0792   Anisotropy =    89.3449
   XX=     7.1214   YX=    52.3228   ZX=    -8.3934
   XY=    57.3708   YY=   -42.7605   ZY=   -18.8184
   XZ=    -2.4119   YZ=   -13.4413   ZZ=    59.8768
   Eigenvalues:   -78.8950    35.4902    67.6425
  5  N    Isotropic =    23.9731   Anisotropy =   249.9209
   XX=   -62.2789   YX=    90.8250   ZX=   -58.3736
   XY=    93.3634   YY=    -4.8857   ZY=   -49.9219
   XZ=   -86.4824   YZ=   -38.4686   ZZ=   139.0840
   Eigenvalues:  -134.3112    15.6435   190.5870
  6  C    Isotropic =   105.3534   Anisotropy =    25.4581
   XX=   120.5195   YX=     4.2773   ZX=     7.5180
   XY=   -11.2205   YY=   111.8421   ZY=     7.0677
   XZ=   -14.2975   YZ=     2.0752   ZZ=    83.6987
   Eigenvalues:    82.7634   110.9714   122.3255
  7  C    Isotropic =   106.5957   Anisotropy =    38.0630
   XX=    98.0606   YX=    16.5913   ZX=     4.6832
   XY=    16.7275   YY=   114.6920   ZY=    14.2243
   XZ=     6.4398   YZ=     9.8742   ZZ=   107.0345
   Eigenvalues:    87.5822   100.2339   131.9711
  8  O    Isotropic =   270.4446   Anisotropy =    38.5571
   XX=   261.7332   YX=    -8.0202   ZX=    12.2883
   XY=     5.0523   YY=   269.0597   ZY=    13.4490
   XZ=    18.2479   YZ=    18.7722   ZZ=   280.5408
   Eigenvalues:   248.1482   267.0362   296.1493
  9  C    Isotropic =   139.8029   Anisotropy =    24.6576
   XX=   141.9874   YX=     0.2253   ZX=    -7.8751
   XY=     6.5031   YY=   128.5425   ZY=   -11.3291
   XZ=    -9.0893   YZ=    -0.4507   ZZ=   148.8787
   Eigenvalues:   126.8655   136.3019   156.2412
 10  C    Isotropic =     0.0734   Anisotropy =   110.3667
   XX=   -48.9819   YX=    34.5237   ZX=    60.2425
   XY=    65.0066   YY=     6.7836   ZY=   -10.6497
   XZ=    47.9919   YZ=     3.7734   ZZ=    42.4185
   Eigenvalues:   -95.6991    22.2681    73.6512
 11  O    Isotropic =   117.9056   Anisotropy =   184.7541
   XX=   166.1105   YX=   -48.3018   ZX=    16.6840
   XY=  -145.1269   YY=    97.1191   ZY=   124.2546
   XZ=    54.9219   YZ=    69.3292   ZZ=    90.4871
   Eigenvalues:   -45.5611   158.2028   241.0750
 12  O    Isotropic =   -73.0437   Anisotropy =   477.9725
   XX=  -100.2439   YX=   154.3876   ZX=   143.8862
   XY=   124.8608   YY=  -211.2970   ZY=   135.5084
   XZ=   160.2436   YZ=   113.6217   ZZ=    92.4099
   Eigenvalues:  -307.1803  -157.5554   245.6047
 13  C    Isotropic =    99.0397   Anisotropy =    72.1587
   XX=   125.7866   YX=   -10.3523   ZX=    33.1141
   XY=   -17.5510   YY=    86.6294   ZY=     6.9609
   XZ=    34.8519   YZ=    -4.0594   ZZ=    84.7031
   Eigenvalues:    62.5994    87.3743   147.1455
 14  C    Isotropic =   169.1857   Anisotropy =    17.9296
   XX=   168.9465   YX=    -6.3666   ZX=    -2.2574
   XY=   -11.1933   YY=   168.0748   ZY=     4.7696
   XZ=    -6.6268   YZ=     4.3977   ZZ=   170.5357
   Eigenvalues:   159.7121   166.7062   181.1387
 15  O    Isotropic =   123.4280   Anisotropy =   142.1497
   XX=    47.2530   YX=   -34.4053   ZX=   -82.0317
   XY=   -21.9823   YY=   190.3332   ZY=    12.8991
   XZ=   -16.5553   YZ=    52.1928   ZZ=   132.6978
   Eigenvalues:    23.7868   128.3028   218.1945
 16  C    Isotropic =    48.8901   Anisotropy =   156.5133
   XX=    52.9574   YX=    23.7688   ZX=   -36.2453
   XY=    18.5510   YY=   -27.3277   ZY=   -51.4452
   XZ=   -37.3281   YZ=   -47.7866   ZZ=   121.0406
   Eigenvalues:   -43.4427    36.8807   153.2323
 17  C    Isotropic =    48.0170   Anisotropy =    99.8222
   XX=    29.4475   YX=   -39.4458   ZX=   -49.9566
   XY=   -38.9680   YY=    35.6007   ZY=   -42.7284
   XZ=   -49.8515   YZ=   -42.4338   ZZ=    79.0027
   Eigenvalues:   -42.2554    71.7412   114.5651
 18  Cl   Isotropic =   709.1791   Anisotropy =   496.7811
   XX=   765.1172   YX=   196.9027   ZX=   154.7819
   XY=   196.3307   YY=   696.0584   ZY=   131.2204
   XZ=   154.6952   YZ=   131.4937   ZZ=   666.3616
   Eigenvalues:   530.9253   556.2455  1040.3665
 19  C    Isotropic =    42.4142   Anisotropy =   163.0783
   XX=   -16.8360   YX=    44.4746   ZX=   -58.3982
   XY=    45.6738   YY=    25.5856   ZY=   -21.3778
   XZ=   -59.7003   YZ=   -20.3601   ZZ=   118.4930
   Eigenvalues:   -55.3048    31.4143   151.1331
 20  C    Isotropic =    59.4797   Anisotropy =   147.2762
   XX=    60.0311   YX=    23.5528   ZX=   -34.9373
   XY=    26.4257   YY=    -9.9771   ZY=   -43.4136
   XZ=   -34.2810   YZ=   -43.6143   ZZ=   128.3850
   Eigenvalues:   -25.2757    46.0509   157.6638
 21  H    Isotropic =    19.9385   Anisotropy =    24.9452
   XX=    26.8764   YX=   -12.4075   ZX=     3.9514
   XY=    -9.7076   YY=    23.6401   ZY=     2.3411
   XZ=     5.1273   YZ=     2.4024   ZZ=     9.2990
   Eigenvalues:     6.2759    16.9710    36.5686
 22  H    Isotropic =    27.2749   Anisotropy =     4.6766
   XX=    26.6270   YX=     0.8819   ZX=     1.8650
   XY=    -0.3227   YY=    25.9555   ZY=    -1.0705
   XZ=     2.1791   YZ=    -0.2988   ZZ=    29.2421
   Eigenvalues:    25.1154    26.3166    30.3926
 23  H    Isotropic =    27.3869   Anisotropy =     3.8448
   XX=    27.8356   YX=     0.5425   ZX=    -0.6267
   XY=    -0.4313   YY=    29.6431   ZY=     1.3344
   XZ=    -0.9288   YZ=     1.1742   ZZ=    24.6820
   Eigenvalues:    24.2191    27.9914    29.9501
 24  H    Isotropic =    29.8166   Anisotropy =    14.6214
   XX=    30.9069   YX=    -4.2525   ZX=    -0.7361
   XY=    -4.6507   YY=    35.3667   ZY=     5.2328
   XZ=    -2.3780   YZ=     4.2546   ZZ=    23.1760
   Eigenvalues:    21.5476    28.3380    39.5641
 25  H    Isotropic =    28.9959   Anisotropy =     4.0141
   XX=    29.0088   YX=     2.7526   ZX=    -0.4272
   XY=     2.9971   YY=    28.5559   ZY=     0.2124
   XZ=    -1.3112   YZ=     1.3492   ZZ=    29.4229
   Eigenvalues:    25.5490    29.7666    31.6719
 26  H    Isotropic =    29.6929   Anisotropy =     6.1899
   XX=    31.7068   YX=    -2.3733   ZX=    -2.2114
   XY=     0.4304   YY=    28.7193   ZY=    -2.9402
   XZ=    -4.2360   YZ=    -2.1727   ZZ=    28.6526
   Eigenvalues:    24.7761    30.4832    33.8195
 27  H    Isotropic =    24.8101   Anisotropy =    12.5402
   XX=    29.4813   YX=     2.1527   ZX=    -6.3460
   XY=    -1.5989   YY=    20.1191   ZY=     1.6616
   XZ=    -4.7472   YZ=    -0.6644   ZZ=    24.8300
   Eigenvalues:    19.8656    21.3946    33.1703
 28  H    Isotropic =    26.7937   Anisotropy =     6.3648
   XX=    25.3379   YX=     0.5248   ZX=     0.0943
   XY=    -0.5222   YY=    26.7356   ZY=    -2.5245
   XZ=     0.3650   YZ=    -4.3166   ZZ=    28.3076
   Eigenvalues:    23.9964    25.3478    31.0369
 29  H    Isotropic =    30.3458   Anisotropy =     5.4022
   XX=    27.4773   YX=     0.7306   ZX=    -3.1230
   XY=     0.5693   YY=    31.4076   ZY=    -0.1790
   XZ=    -3.3144   YZ=    -0.5583   ZZ=    32.1525
   Eigenvalues:    25.8064    31.2837    33.9473
 30  H    Isotropic =    30.0153   Anisotropy =     9.8906
   XX=    28.5149   YX=     1.7947   ZX=     0.0276
   XY=     2.2903   YY=    35.5307   ZY=     2.2175
   XZ=     0.3801   YZ=     2.5658   ZZ=    26.0003
   Eigenvalues:    25.4065    28.0304    36.6090
 31  H    Isotropic =    30.2908   Anisotropy =     9.5172
   XX=    32.9267   YX=    -3.6267   ZX=     2.5882
   XY=    -3.9890   YY=    30.9440   ZY=    -1.2254
   XZ=     2.6183   YZ=    -0.8887   ZZ=    27.0015
   Eigenvalues:    25.9787    28.2581    36.6356
 32  H    Isotropic =    23.7293   Anisotropy =    12.4149
   XX=    30.2746   YX=    -0.4201   ZX=     4.5168
   XY=    -0.0393   YY=    20.8248   ZY=     0.8103
   XZ=     4.5677   YZ=     0.5334   ZZ=    20.0885
   Eigenvalues:    18.1678    21.0143    32.0059
 33  H    Isotropic =    24.0147   Anisotropy =     7.2018
   XX=    23.1297   YX=     0.9705   ZX=     1.5249
   XY=     0.4806   YY=    27.4326   ZY=     2.6761
   XZ=     1.2478   YZ=     2.9801   ZZ=    21.4819
   Eigenvalues:    20.0022    23.2261    28.8159
 34  H    Isotropic =    24.4937   Anisotropy =     5.5710
   XX=    27.2124   YX=    -0.7064   ZX=     2.2847
   XY=     0.0602   YY=    23.9840   ZY=     1.1354
   XZ=     2.5676   YZ=     0.8286   ZZ=    22.2847
   Eigenvalues:    20.9412    24.3322    28.2077
 End of Minotr Frequency-dependent properties file   721 does not exist.
 End of Minotr Frequency-dependent properties file   722 does not exist.

 **********************************************************************

            Population analysis using the SCF density.

 **********************************************************************

 Orbital symmetries:
       Occupied  (A) (A) (A) (A) (A) (A) (A) (A) (A) (A) (A) (A)
                 (A) (A) (A) (A) (A) (A) (A) (A) (A) (A) (A) (A)
                 (A) (A) (A) (A) (A) (A) (A) (A) (A) (A) (A) (A)
                 (A) (A) (A) (A) (A) (A) (A) (A) (A) (A) (A) (A)
                 (A) (A) (A) (A) (A) (A) (A) (A) (A) (A) (A) (A)
                 (A) (A) (A) (A) (A) (A) (A) (A) (A) (A) (A) (A)
                 (A) (A) (A) (A) (A) (A)
       Virtual   (A) (A) (A) (A) (A) (A) (A) (A) (A) (A) (A) (A)
                 (A) (A) (A) (A) (A) (A) (A) (A) (A) (A) (A) (A)
                 (A) (A) (A) (A) (A) (A) (A) (A) (A) (A) (A) (A)
                 (A) (A) (A) (A) (A) (A) (A) (A) (A) (A) (A) (A)
                 (A) (A) (A) (A) (A) (A) (A) (A) (A) (A) (A) (A)
                 (A) (A) (A) (A) (A) (A) (A) (A) (A) (A) (A) (A)
                 (A) (A) (A) (A) (A) (A) (A) (A) (A) (A) (A) (A)
                 (A) (A) (A) (A) (A) (A) (A) (A) (A) (A) (A) (A)
                 (A) (A) (A) (A) (A) (A) (A) (A) (A) (A) (A) (A)
                 (A) (A) (A) (A) (A) (A) (A) (A) (A) (A) (A) (A)
                 (A) (A) (A) (A) (A) (A) (A) (A) (A) (A) (A) (A)
                 (A) (A) (A) (A) (A) (A) (A) (A) (A) (A) (A) (A)
                 (A) (A) (A) (A) (A) (A) (A) (A) (A) (A) (A) (A)
                 (A) (A) (A) (A) (A) (A) (A) (A) (A) (A) (A) (A)
                 (A) (A) (A) (A) (A) (A) (A) (A) (A) (A) (A) (A)
                 (A) (A) (A) (A) (A) (A) (A) (A) (A) (A) (A) (A)
                 (A) (A) (A) (A) (A) (A) (A) (A) (A) (A) (A) (A)
                 (A) (A) (A) (A) (A) (A) (A) (A) (A) (A) (A) (A)
                 (A) (A) (A) (A) (A) (A) (A) (A) (A) (A) (A) (A)
                 (A) (A) (A) (A) (A) (A) (A) (A) (A) (A) (A) (A)
                 (A) (A) (A) (A) (A) (A) (A) (A) (A) (A) (A) (A)
                 (A) (A) (A) (A) (A) (A) (A) (A) (A) (A) (A) (A)
                 (A) (A) (A) (A) (A) (A) (A) (A) (A) (A) (A) (A)
                 (A) (A) (A) (A) (A) (A) (A) (A) (A) (A) (A) (A)
                 (A) (A) (A) (A) (A) (A) (A) (A) (A) (A) (A) (A)
                 (A) (A) (A) (A) (A) (A) (A) (A) (A) (A) (A) (A)
                 (A) (A) (A) (A) (A) (A) (A) (A) (A) (A) (A) (A)
                 (A) (A) (A) (A) (A) (A) (A) (A) (A) (A) (A) (A)
                 (A) (A) (A) (A) (A) (A) (A) (A) (A) (A) (A) (A)
                 (A) (A) (A) (A) (A) (A) (A) (A) (A) (A) (A) (A)
                 (A) (A) (A) (A) (A) (A) (A) (A) (A) (A) (A) (A)
                 (A) (A) (A) (A) (A) (A) (A) (A) (A) (A) (A) (A)
                 (A) (A) (A) (A) (A) (A) (A) (A) (A) (A) (A) (A)
                 (A) (A) (A) (A) (A) (A) (A) (A) (A) (A) (A) (A)
                 (A) (A) (A) (A) (A) (A) (A) (A) (A) (A) (A) (A)
                 (A) (A) (A) (A) (A) (A) (A) (A) (A) (A) (A) (A)
                 (A) (A) (A) (A) (A) (A) (A) (A) (A) (A) (A) (A)
                 (A) (A) (A) (A) (A) (A) (A) (A) (A) (A) (A) (A)
                 (A) (A) (A) (A) (A) (A) (A) (A) (A) (A) (A) (A)
                 (A) (A) (A) (A) (A) (A) (A) (A) (A) (A) (A) (A)
                 (A) (A) (A) (A) (A) (A) (A) (A) (A) (A) (A) (A)
                 (A) (A) (A) (A) (A) (A) (A) (A) (A) (A) (A) (A)
                 (A) (A) (A) (A) (A) (A) (A) (A) (A) (A) (A) (A)
                 (A) (A) (A) (A) (A) (A) (A) (A) (A) (A) (A) (A)
                 (A) (A) (A) (A) (A) (A) (A) (A) (A) (A) (A) (A)
                 (A) (A) (A) (A) (A) (A) (A) (A) (A) (A) (A) (A)
 The electronic state is 1-A.
 Alpha  occ. eigenvalues -- -101.55975 -19.18107 -19.17520 -19.15575 -19.13760
 Alpha  occ. eigenvalues --  -19.12754 -14.31594 -10.31863 -10.28608 -10.25664
 Alpha  occ. eigenvalues --  -10.24150 -10.23824 -10.23795 -10.21528 -10.20518
 Alpha  occ. eigenvalues --  -10.19880 -10.19729 -10.18663 -10.18612 -10.16795
 Alpha  occ. eigenvalues --   -9.47426  -7.23861  -7.22921  -7.22895  -1.12301
 Alpha  occ. eigenvalues --   -1.11331  -1.07433  -1.04221  -1.03344  -0.92710
 Alpha  occ. eigenvalues --   -0.90214  -0.85101  -0.82067  -0.78840  -0.77129
 Alpha  occ. eigenvalues --   -0.74131  -0.71812  -0.67877  -0.64440  -0.63088
 Alpha  occ. eigenvalues --   -0.61798  -0.60583  -0.58955  -0.54990  -0.53869
 Alpha  occ. eigenvalues --   -0.53118  -0.50778  -0.50669  -0.49661  -0.48551
 Alpha  occ. eigenvalues --   -0.47909  -0.47330  -0.46121  -0.45565  -0.44546
 Alpha  occ. eigenvalues --   -0.43835  -0.43235  -0.42120  -0.41545  -0.40753
 Alpha  occ. eigenvalues --   -0.40390  -0.39811  -0.39382  -0.38939  -0.38753
 Alpha  occ. eigenvalues --   -0.37308  -0.36974  -0.36354  -0.34602  -0.33724
 Alpha  occ. eigenvalues --   -0.32429  -0.32402  -0.30738  -0.30302  -0.29831
 Alpha  occ. eigenvalues --   -0.28240  -0.26204  -0.23478
 Alpha virt. eigenvalues --   -0.06227  -0.02122  -0.01286  -0.00125   0.00835
 Alpha virt. eigenvalues --    0.00946   0.01499   0.01636   0.02675   0.03048
 Alpha virt. eigenvalues --    0.03468   0.03680   0.04564   0.04648   0.05491
 Alpha virt. eigenvalues --    0.05702   0.06007   0.06422   0.07030   0.07426
 Alpha virt. eigenvalues --    0.07778   0.08151   0.08614   0.08789   0.09141
 Alpha virt. eigenvalues --    0.09626   0.10136   0.10498   0.11167   0.11349
 Alpha virt. eigenvalues --    0.12057   0.12382   0.12673   0.13006   0.13507
 Alpha virt. eigenvalues --    0.13924   0.14306   0.14631   0.14848   0.14919
 Alpha virt. eigenvalues --    0.15256   0.15757   0.16277   0.16620   0.16684
 Alpha virt. eigenvalues --    0.16940   0.17350   0.17640   0.17925   0.18330
 Alpha virt. eigenvalues --    0.18681   0.19092   0.19220   0.19273   0.19723
 Alpha virt. eigenvalues --    0.20161   0.20292   0.20455   0.21025   0.21383
 Alpha virt. eigenvalues --    0.21419   0.21904   0.22193   0.22784   0.22880
 Alpha virt. eigenvalues --    0.23318   0.23569   0.24170   0.24494   0.24662
 Alpha virt. eigenvalues --    0.24896   0.25380   0.25798   0.26127   0.26590
 Alpha virt. eigenvalues --    0.26770   0.27187   0.27504   0.27729   0.28126
 Alpha virt. eigenvalues --    0.28501   0.29096   0.29182   0.29376   0.29568
 Alpha virt. eigenvalues --    0.30149   0.30473   0.31026   0.31161   0.32134
 Alpha virt. eigenvalues --    0.32524   0.32820   0.33564   0.33908   0.34157
 Alpha virt. eigenvalues --    0.34372   0.34684   0.35081   0.35529   0.36581
 Alpha virt. eigenvalues --    0.36688   0.37012   0.37451   0.37524   0.38637
 Alpha virt. eigenvalues --    0.38884   0.39769   0.40456   0.40982   0.41649
 Alpha virt. eigenvalues --    0.42166   0.43020   0.43303   0.44040   0.44716
 Alpha virt. eigenvalues --    0.45204   0.45495   0.45648   0.46212   0.47039
 Alpha virt. eigenvalues --    0.47986   0.48256   0.49713   0.49879   0.50627
 Alpha virt. eigenvalues --    0.51834   0.52435   0.52840   0.53107   0.54215
 Alpha virt. eigenvalues --    0.54386   0.54580   0.55071   0.55721   0.55889
 Alpha virt. eigenvalues --    0.57046   0.58053   0.58237   0.58677   0.59290
 Alpha virt. eigenvalues --    0.59750   0.60130   0.60744   0.61397   0.62069
 Alpha virt. eigenvalues --    0.62709   0.63077   0.64047   0.64561   0.64911
 Alpha virt. eigenvalues --    0.65176   0.65861   0.66533   0.66619   0.67558
 Alpha virt. eigenvalues --    0.68166   0.68275   0.69678   0.69863   0.70541
 Alpha virt. eigenvalues --    0.71312   0.71769   0.72342   0.72989   0.73356
 Alpha virt. eigenvalues --    0.73384   0.74514   0.75289   0.75749   0.76150
 Alpha virt. eigenvalues --    0.77286   0.77357   0.77698   0.78312   0.78663
 Alpha virt. eigenvalues --    0.79470   0.80237   0.80985   0.81607   0.81750
 Alpha virt. eigenvalues --    0.82629   0.82800   0.83532   0.85149   0.85626
 Alpha virt. eigenvalues --    0.86181   0.86919   0.88330   0.88968   0.90467
 Alpha virt. eigenvalues --    0.91239   0.92349   0.92976   0.94423   0.95331
 Alpha virt. eigenvalues --    0.95832   0.97096   0.97388   0.97760   0.98954
 Alpha virt. eigenvalues --    0.99122   0.99636   1.00312   1.01699   1.03367
 Alpha virt. eigenvalues --    1.03935   1.04187   1.05066   1.05597   1.06468
 Alpha virt. eigenvalues --    1.07572   1.08831   1.08943   1.09703   1.10851
 Alpha virt. eigenvalues --    1.11753   1.12500   1.13027   1.13502   1.14033
 Alpha virt. eigenvalues --    1.14457   1.14947   1.16687   1.17029   1.18303
 Alpha virt. eigenvalues --    1.18411   1.19281   1.19765   1.19958   1.20692
 Alpha virt. eigenvalues --    1.21492   1.22741   1.23749   1.24531   1.24887
 Alpha virt. eigenvalues --    1.25294   1.26502   1.27095   1.27939   1.29560
 Alpha virt. eigenvalues --    1.30734   1.31127   1.32036   1.32958   1.33364
 Alpha virt. eigenvalues --    1.34460   1.34770   1.35145   1.36274   1.37066
 Alpha virt. eigenvalues --    1.37552   1.38269   1.38930   1.40720   1.41292
 Alpha virt. eigenvalues --    1.42335   1.43364   1.43995   1.45486   1.45822
 Alpha virt. eigenvalues --    1.47347   1.49143   1.50787   1.51703   1.52526
 Alpha virt. eigenvalues --    1.52811   1.53588   1.55599   1.56262   1.56655
 Alpha virt. eigenvalues --    1.58719   1.60641   1.61338   1.61978   1.62371
 Alpha virt. eigenvalues --    1.63053   1.64434   1.66168   1.67499   1.68727
 Alpha virt. eigenvalues --    1.68974   1.70705   1.72581   1.73825   1.74083
 Alpha virt. eigenvalues --    1.75124   1.76292   1.77351   1.78835   1.79317
 Alpha virt. eigenvalues --    1.81773   1.82106   1.83934   1.86438   1.86683
 Alpha virt. eigenvalues --    1.87442   1.89324   1.90020   1.92259   1.93226
 Alpha virt. eigenvalues --    1.93751   1.95586   1.96335   1.98486   2.00209
 Alpha virt. eigenvalues --    2.03828   2.04390   2.04564   2.07111   2.09540
 Alpha virt. eigenvalues --    2.10354   2.11776   2.13917   2.15218   2.15465
 Alpha virt. eigenvalues --    2.16791   2.18916   2.19530   2.20259   2.21638
 Alpha virt. eigenvalues --    2.25098   2.25761   2.27070   2.27912   2.28676
 Alpha virt. eigenvalues --    2.30145   2.31207   2.33104   2.34345   2.34914
 Alpha virt. eigenvalues --    2.36166   2.37201   2.37881   2.38030   2.39664
 Alpha virt. eigenvalues --    2.40458   2.41376   2.43401   2.44232   2.44992
 Alpha virt. eigenvalues --    2.48075   2.49096   2.49602   2.50115   2.50792
 Alpha virt. eigenvalues --    2.52012   2.53594   2.56403   2.57027   2.60099
 Alpha virt. eigenvalues --    2.61955   2.63074   2.63962   2.64023   2.64716
 Alpha virt. eigenvalues --    2.66710   2.67719   2.70681   2.71360   2.72236
 Alpha virt. eigenvalues --    2.74277   2.75877   2.78003   2.79284   2.81237
 Alpha virt. eigenvalues --    2.82702   2.83096   2.84731   2.85072   2.85422
 Alpha virt. eigenvalues --    2.87028   2.88736   2.89667   2.89844   2.92601
 Alpha virt. eigenvalues --    2.93920   2.95341   2.98463   2.99642   3.01056
 Alpha virt. eigenvalues --    3.01862   3.04641   3.06485   3.07278   3.08669
 Alpha virt. eigenvalues --    3.09175   3.10370   3.11582   3.15414   3.18661
 Alpha virt. eigenvalues --    3.18904   3.22786   3.23172   3.24084   3.25741
 Alpha virt. eigenvalues --    3.27678   3.31350   3.31635   3.32228   3.33883
 Alpha virt. eigenvalues --    3.34535   3.35620   3.36072   3.37961   3.39074
 Alpha virt. eigenvalues --    3.39857   3.40413   3.41247   3.43450   3.43772
 Alpha virt. eigenvalues --    3.44464   3.46370   3.47068   3.48246   3.49049
 Alpha virt. eigenvalues --    3.49889   3.51442   3.52401   3.53084   3.54760
 Alpha virt. eigenvalues --    3.55354   3.56461   3.57098   3.57769   3.58753
 Alpha virt. eigenvalues --    3.58844   3.60272   3.60738   3.62180   3.62527
 Alpha virt. eigenvalues --    3.63966   3.64690   3.66236   3.67258   3.68017
 Alpha virt. eigenvalues --    3.68890   3.70070   3.71832   3.72655   3.73402
 Alpha virt. eigenvalues --    3.74808   3.76549   3.77071   3.77606   3.78931
 Alpha virt. eigenvalues --    3.80488   3.81476   3.82528   3.84312   3.86155
 Alpha virt. eigenvalues --    3.86572   3.88200   3.88997   3.91968   3.94905
 Alpha virt. eigenvalues --    3.97145   3.99289   4.00495   4.03225   4.06182
 Alpha virt. eigenvalues --    4.08772   4.09774   4.10997   4.15997   4.16507
 Alpha virt. eigenvalues --    4.19759   4.23806   4.25237   4.27189   4.28588
 Alpha virt. eigenvalues --    4.35294   4.40396   4.41635   4.43188   4.45613
 Alpha virt. eigenvalues --    4.55508   4.57475   4.59012   4.74314   4.75783
 Alpha virt. eigenvalues --    4.87642   4.99702   5.03473   5.06463   5.07408
 Alpha virt. eigenvalues --    5.08816   5.14541   5.18533   5.20395   5.24709
 Alpha virt. eigenvalues --    5.25489   5.37758   5.41878   5.45132   5.47609
 Alpha virt. eigenvalues --    5.56046   5.59573   5.64674   5.76840   5.81508
 Alpha virt. eigenvalues --    5.92605   6.09460   6.10108   6.75343   6.83474
 Alpha virt. eigenvalues --    6.84735   6.85767   6.90775   6.96473   6.96537
 Alpha virt. eigenvalues --    6.99379   7.00305   7.01697   7.05770   7.06244
 Alpha virt. eigenvalues --    7.07090   7.10811   7.14845   7.15122   7.20026
 Alpha virt. eigenvalues --    7.21853   7.29212   7.31795   7.35723   7.37767
 Alpha virt. eigenvalues --    7.38892   7.41826   7.52848   9.89722  23.67028
 Alpha virt. eigenvalues --   23.91631  23.94558  23.95953  23.98738  24.00254
 Alpha virt. eigenvalues --   24.01106  24.03827  24.07905  24.11286  24.14040
 Alpha virt. eigenvalues --   24.18298  24.32557  25.87516  26.28139  27.40700
 Alpha virt. eigenvalues --   35.76818  49.93201  49.99769  50.03536  50.04632
 Alpha virt. eigenvalues --   50.08268 215.89925
          Condensed to atoms (all electrons):
              1          2          3          4          5          6
     1  O    8.337725   0.414865   0.027828  -0.072450   0.022369   0.023918
     2  C    0.414865   9.466055   0.189850  -0.506004  -0.004193   0.218050
     3  C    0.027828   0.189850   7.657882   0.321728  -0.007124  -0.266461
     4  C   -0.072450  -0.506004   0.321728   7.149654   0.100152   0.220782
     5  N    0.022369  -0.004193  -0.007124   0.100152   7.276568  -0.248871
     6  C    0.023918   0.218050  -0.266461   0.220782  -0.248871  11.794619
     7  C   -0.000275  -0.078850   0.128069   0.196335   0.090945  -3.305598
     8  O    0.000230   0.006543  -0.007896  -0.029144   0.015787   0.049526
     9  C   -0.006432   0.015440  -0.057990  -0.169904  -0.094511   1.203859
    10  C   -0.007373   0.015397  -0.049599  -0.253474   0.027526  -0.225619
    11  O    0.000017   0.000800  -0.000028   0.002879   0.001597  -0.033348
    12  O    0.000006  -0.001142  -0.001206  -0.006656  -0.000194   0.003222
    13  C   -0.020649  -0.186715  -0.051595  -0.992545   0.503206  -3.960537
    14  C    0.000333   0.023104   0.023594  -0.251409   0.006626   0.350122
    15  O   -0.002723   0.002465   0.009506   0.362835  -0.101825  -0.119951
    16  C    0.065114   0.156184   1.005075  -0.834647  -0.063378  -0.381859
    17  C   -0.042196  -1.185493  -1.125455   0.368524  -0.031479  -0.018989
    18  Cl  -0.000080   0.072474   0.091439  -0.052123   0.000161  -0.003808
    19  C    0.031644  -0.100214  -1.112297  -0.426667   0.004803   0.011703
    20  C   -0.390977  -2.327795  -0.789760   0.443668   0.002520   0.044374
    21  H    0.234427  -0.009233  -0.046185  -0.024430   0.052627   0.007272
    22  H    0.000631   0.006577  -0.002242  -0.015948  -0.045047   0.492318
    23  H    0.000028   0.002848  -0.000838   0.006452   0.007151  -0.031935
    24  H   -0.000339  -0.005400   0.006480   0.005408   0.013907  -0.089545
    25  H    0.000000   0.003368  -0.005536  -0.019963  -0.004804   0.000417
    26  H   -0.002221   0.005868  -0.002403  -0.009733  -0.002149   0.000845
    27  H    0.000000   0.000002  -0.000145  -0.000889  -0.000117  -0.000018
    28  H    0.000093  -0.009487   0.002408  -0.026589  -0.006719  -0.072023
    29  H    0.000008  -0.001569  -0.001798  -0.005312  -0.002756  -0.003850
    30  H    0.000000   0.000406   0.005243  -0.009158   0.000864  -0.009115
    31  H    0.000001  -0.000022   0.000192  -0.005767  -0.000868   0.018908
    32  H   -0.000492   0.021539  -0.011163  -0.006870  -0.000323   0.005065
    33  H   -0.000669   0.028549  -0.011660  -0.000953   0.000007   0.000043
    34  H    0.002156  -0.189432  -0.008883   0.009086   0.000017  -0.000037
              7          8          9         10         11         12
     1  O   -0.000275   0.000230  -0.006432  -0.007373   0.000017   0.000006
     2  C   -0.078850   0.006543   0.015440   0.015397   0.000800  -0.001142
     3  C    0.128069  -0.007896  -0.057990  -0.049599  -0.000028  -0.001206
     4  C    0.196335  -0.029144  -0.169904  -0.253474   0.002879  -0.006656
     5  N    0.090945   0.015787  -0.094511   0.027526   0.001597  -0.000194
     6  C   -3.305598   0.049526   1.203859  -0.225619  -0.033348   0.003222
     7  C    8.612627   0.041221  -1.106208  -0.099659   0.029300  -0.048540
     8  O    0.041221   8.228587   0.013501  -0.018030   0.006255   0.003278
     9  C   -1.106208   0.013501   7.017252  -0.825784   0.031693   0.079761
    10  C   -0.099659  -0.018030  -0.825784   6.137276   0.212868   0.329374
    11  O    0.029300   0.006255   0.031693   0.212868   7.989246  -0.091475
    12  O   -0.048540   0.003278   0.079761   0.329374  -0.091475   8.271902
    13  C    1.345855  -0.030891  -0.371491   0.135558   0.021147   0.000115
    14  C   -0.451631   0.014516   0.040891   0.086772  -0.005646  -0.000492
    15  O    0.041161   0.001254  -0.019689   0.016818  -0.000005   0.000421
    16  C    0.049158  -0.003685  -0.068857  -0.053610  -0.000326  -0.000215
    17  C    0.026499  -0.000611  -0.013141  -0.002084  -0.000070   0.000092
    18  Cl   0.000007  -0.000002   0.000179   0.000216   0.000000  -0.000001
    19  C   -0.000151   0.000041  -0.014889  -0.010738  -0.000001  -0.000036
    20  C    0.019147   0.000968   0.019963   0.030577   0.000151   0.000648
    21  H   -0.002482  -0.000250  -0.000039   0.000514  -0.000012   0.000093
    22  H   -0.095983  -0.002382   0.004539  -0.001578   0.000034   0.000002
    23  H    0.509129  -0.051897  -0.040533  -0.033560  -0.005765   0.000338
    24  H    0.138011   0.251812  -0.023681  -0.019536  -0.000099  -0.000702
    25  H   -0.050721   0.008936   0.401183   0.011155  -0.004027   0.000287
    26  H   -0.014758  -0.007457   0.442339  -0.072381   0.006691   0.001986
    27  H   -0.005619   0.000151  -0.061631   0.062477   0.249726   0.009845
    28  H    0.019721  -0.000658   0.003117   0.000638  -0.000004  -0.000004
    29  H    0.001310   0.000425  -0.002746   0.002437   0.001471  -0.000117
    30  H    0.006845  -0.000046   0.000806   0.000216  -0.000003   0.000000
    31  H   -0.020665   0.000067   0.007384  -0.001384  -0.000057   0.000004
    32  H    0.001146   0.000002  -0.000483   0.000128   0.000000   0.000001
    33  H    0.000001   0.000000   0.000013   0.000003   0.000000   0.000000
    34  H   -0.000014   0.000000  -0.000016  -0.000003   0.000000   0.000000
             13         14         15         16         17         18
     1  O   -0.020649   0.000333  -0.002723   0.065114  -0.042196  -0.000080
     2  C   -0.186715   0.023104   0.002465   0.156184  -1.185493   0.072474
     3  C   -0.051595   0.023594   0.009506   1.005075  -1.125455   0.091439
     4  C   -0.992545  -0.251409   0.362835  -0.834647   0.368524  -0.052123
     5  N    0.503206   0.006626  -0.101825  -0.063378  -0.031479   0.000161
     6  C   -3.960537   0.350122  -0.119951  -0.381859  -0.018989  -0.003808
     7  C    1.345855  -0.451631   0.041161   0.049158   0.026499   0.000007
     8  O   -0.030891   0.014516   0.001254  -0.003685  -0.000611  -0.000002
     9  C   -0.371491   0.040891  -0.019689  -0.068857  -0.013141   0.000179
    10  C    0.135558   0.086772   0.016818  -0.053610  -0.002084   0.000216
    11  O    0.021147  -0.005646  -0.000005  -0.000326  -0.000070   0.000000
    12  O    0.000115  -0.000492   0.000421  -0.000215   0.000092  -0.000001
    13  C    8.850418  -0.086897   0.151992   0.167462   0.013425   0.005827
    14  C   -0.086897   5.775251  -0.113240  -0.058919  -0.032209   0.000616
    15  O    0.151992  -0.113240   8.273488  -0.081426   0.010652  -0.000199
    16  C    0.167462  -0.058919  -0.081426   8.504587   0.287792   0.243148
    17  C    0.013425  -0.032209   0.010652   0.287792   8.959942  -0.699090
    18  Cl   0.005827   0.000616  -0.000199   0.243148  -0.699090  17.095484
    19  C   -0.064386  -0.010758  -0.008649  -0.648812  -1.577918   0.308832
    20  C    0.045580  -0.002246   0.012060  -1.923647   0.129609   0.033985
    21  H    0.006633  -0.000108   0.003112  -0.029793   0.012088   0.000022
    22  H   -0.028193   0.016603   0.007247  -0.001004  -0.000619   0.000001
    23  H   -0.030947  -0.003187  -0.001588  -0.002148  -0.000236  -0.000001
    24  H    0.024714  -0.001345  -0.000623   0.000674   0.000072   0.000000
    25  H    0.019209  -0.008490   0.005474  -0.004269  -0.001732  -0.000012
    26  H   -0.014655   0.000808   0.000031  -0.011444  -0.001052  -0.000003
    27  H   -0.000816   0.000682   0.000007  -0.000054   0.000001   0.000000
    28  H    0.476432  -0.032295  -0.049494   0.014542   0.000864   0.000001
    29  H   -0.023131   0.400846   0.000170   0.005655   0.000550  -0.000001
    30  H    0.003361   0.388607  -0.003982  -0.005042  -0.001148  -0.000004
    31  H   -0.070260   0.445268   0.007444   0.000079   0.000050   0.000000
    32  H   -0.001039  -0.001840   0.007902   0.401725  -0.086491  -0.009539
    33  H    0.000004   0.000003  -0.000007   0.021327  -0.066722  -0.004177
    34  H    0.000110   0.000004   0.000008  -0.025848   0.056224  -0.000955
             19         20         21         22         23         24
     1  O    0.031644  -0.390977   0.234427   0.000631   0.000028  -0.000339
     2  C   -0.100214  -2.327795  -0.009233   0.006577   0.002848  -0.005400
     3  C   -1.112297  -0.789760  -0.046185  -0.002242  -0.000838   0.006480
     4  C   -0.426667   0.443668  -0.024430  -0.015948   0.006452   0.005408
     5  N    0.004803   0.002520   0.052627  -0.045047   0.007151   0.013907
     6  C    0.011703   0.044374   0.007272   0.492318  -0.031935  -0.089545
     7  C   -0.000151   0.019147  -0.002482  -0.095983   0.509129   0.138011
     8  O    0.000041   0.000968  -0.000250  -0.002382  -0.051897   0.251812
     9  C   -0.014889   0.019963  -0.000039   0.004539  -0.040533  -0.023681
    10  C   -0.010738   0.030577   0.000514  -0.001578  -0.033560  -0.019536
    11  O   -0.000001   0.000151  -0.000012   0.000034  -0.005765  -0.000099
    12  O   -0.000036   0.000648   0.000093   0.000002   0.000338  -0.000702
    13  C   -0.064386   0.045580   0.006633  -0.028193  -0.030947   0.024714
    14  C   -0.010758  -0.002246  -0.000108   0.016603  -0.003187  -0.001345
    15  O   -0.008649   0.012060   0.003112   0.007247  -0.001588  -0.000623
    16  C   -0.648812  -1.923647  -0.029793  -0.001004  -0.002148   0.000674
    17  C   -1.577918   0.129609   0.012088  -0.000619  -0.000236   0.000072
    18  Cl   0.308832   0.033985   0.000022   0.000001  -0.000001   0.000000
    19  C   10.044370  -0.131249  -0.011163   0.000101   0.000005  -0.000051
    20  C   -0.131249  10.325584   0.091358   0.000660   0.000139  -0.000617
    21  H   -0.011163   0.091358   0.263268  -0.000910  -0.000033   0.000184
    22  H    0.000101   0.000660  -0.000910   0.554391  -0.004466  -0.000434
    23  H    0.000005   0.000139  -0.000033  -0.004466   0.530259   0.004334
    24  H   -0.000051  -0.000617   0.000184  -0.000434   0.004334   0.394937
    25  H    0.000019   0.000403  -0.000060  -0.000045  -0.005083  -0.000456
    26  H    0.000138   0.006378   0.000691  -0.000451   0.005111   0.000203
    27  H   -0.000001   0.000006   0.000000  -0.000003  -0.000407  -0.000010
    28  H    0.000435  -0.002432  -0.000077  -0.011912  -0.000322  -0.000017
    29  H    0.000137  -0.000316  -0.000002  -0.000307  -0.003856  -0.000064
    30  H   -0.000047   0.000026   0.000001  -0.000230   0.000335   0.000003
    31  H   -0.000002   0.000002  -0.000003  -0.000285   0.000243  -0.000017
    32  H    0.016130   0.000221   0.000072  -0.000008  -0.000002   0.000000
    33  H    0.416520  -0.045405   0.000023   0.000000   0.000000   0.000000
    34  H   -0.091629   0.600035   0.000919   0.000000   0.000000   0.000000
             25         26         27         28         29         30
     1  O    0.000000  -0.002221   0.000000   0.000093   0.000008   0.000000
     2  C    0.003368   0.005868   0.000002  -0.009487  -0.001569   0.000406
     3  C   -0.005536  -0.002403  -0.000145   0.002408  -0.001798   0.005243
     4  C   -0.019963  -0.009733  -0.000889  -0.026589  -0.005312  -0.009158
     5  N   -0.004804  -0.002149  -0.000117  -0.006719  -0.002756   0.000864
     6  C    0.000417   0.000845  -0.000018  -0.072023  -0.003850  -0.009115
     7  C   -0.050721  -0.014758  -0.005619   0.019721   0.001310   0.006845
     8  O    0.008936  -0.007457   0.000151  -0.000658   0.000425  -0.000046
     9  C    0.401183   0.442339  -0.061631   0.003117  -0.002746   0.000806
    10  C    0.011155  -0.072381   0.062477   0.000638   0.002437   0.000216
    11  O   -0.004027   0.006691   0.249726  -0.000004   0.001471  -0.000003
    12  O    0.000287   0.001986   0.009845  -0.000004  -0.000117   0.000000
    13  C    0.019209  -0.014655  -0.000816   0.476432  -0.023131   0.003361
    14  C   -0.008490   0.000808   0.000682  -0.032295   0.400846   0.388607
    15  O    0.005474   0.000031   0.000007  -0.049494   0.000170  -0.003982
    16  C   -0.004269  -0.011444  -0.000054   0.014542   0.005655  -0.005042
    17  C   -0.001732  -0.001052   0.000001   0.000864   0.000550  -0.001148
    18  Cl  -0.000012  -0.000003   0.000000   0.000001  -0.000001  -0.000004
    19  C    0.000019   0.000138  -0.000001   0.000435   0.000137  -0.000047
    20  C    0.000403   0.006378   0.000006  -0.002432  -0.000316   0.000026
    21  H   -0.000060   0.000691   0.000000  -0.000077  -0.000002   0.000001
    22  H   -0.000045  -0.000451  -0.000003  -0.011912  -0.000307  -0.000230
    23  H   -0.005083   0.005111  -0.000407  -0.000322  -0.003856   0.000335
    24  H   -0.000456   0.000203  -0.000010  -0.000017  -0.000064   0.000003
    25  H    0.492828  -0.027275   0.000301   0.000096   0.000400  -0.000119
    26  H   -0.027275   0.508876  -0.000467   0.000020   0.000211   0.000009
    27  H    0.000301  -0.000467   0.387399   0.000000  -0.000009  -0.000002
    28  H    0.000096   0.000020   0.000000   0.569820   0.006187  -0.007710
    29  H    0.000400   0.000211  -0.000009   0.006187   0.531250  -0.027641
    30  H   -0.000119   0.000009  -0.000002  -0.007710  -0.027641   0.527758
    31  H   -0.000024  -0.000037  -0.000012  -0.003859  -0.027053  -0.023397
    32  H    0.000007   0.000022   0.000000  -0.000001   0.000002  -0.000006
    33  H    0.000000   0.000000   0.000000   0.000000   0.000000   0.000000
    34  H    0.000000   0.000000   0.000000   0.000000   0.000000   0.000000
             31         32         33         34
     1  O    0.000001  -0.000492  -0.000669   0.002156
     2  C   -0.000022   0.021539   0.028549  -0.189432
     3  C    0.000192  -0.011163  -0.011660  -0.008883
     4  C   -0.005767  -0.006870  -0.000953   0.009086
     5  N   -0.000868  -0.000323   0.000007   0.000017
     6  C    0.018908   0.005065   0.000043  -0.000037
     7  C   -0.020665   0.001146   0.000001  -0.000014
     8  O    0.000067   0.000002   0.000000   0.000000
     9  C    0.007384  -0.000483   0.000013  -0.000016
    10  C   -0.001384   0.000128   0.000003  -0.000003
    11  O   -0.000057   0.000000   0.000000   0.000000
    12  O    0.000004   0.000001   0.000000   0.000000
    13  C   -0.070260  -0.001039   0.000004   0.000110
    14  C    0.445268  -0.001840   0.000003   0.000004
    15  O    0.007444   0.007902  -0.000007   0.000008
    16  C    0.000079   0.401725   0.021327  -0.025848
    17  C    0.000050  -0.086491  -0.066722   0.056224
    18  Cl   0.000000  -0.009539  -0.004177  -0.000955
    19  C   -0.000002   0.016130   0.416520  -0.091629
    20  C    0.000002   0.000221  -0.045405   0.600035
    21  H   -0.000003   0.000072   0.000023   0.000919
    22  H   -0.000285  -0.000008   0.000000   0.000000
    23  H    0.000243  -0.000002   0.000000   0.000000
    24  H   -0.000017   0.000000   0.000000   0.000000
    25  H   -0.000024   0.000007   0.000000   0.000000
    26  H   -0.000037   0.000022   0.000000   0.000000
    27  H   -0.000012   0.000000   0.000000   0.000000
    28  H   -0.003859  -0.000001   0.000000   0.000000
    29  H   -0.027053   0.000002   0.000000   0.000000
    30  H   -0.023397  -0.000006   0.000000   0.000000
    31  H    0.509752  -0.000004   0.000000   0.000000
    32  H   -0.000004   0.498669  -0.000110   0.000046
    33  H    0.000000  -0.000110   0.517293  -0.004868
    34  H    0.000000   0.000046  -0.004868   0.518164
 Mulliken atomic charges:
              1
     1  O   -0.614517
     2  C   -0.044833
     3  C    0.090971
     4  C    0.533133
     5  N   -0.512473
     6  C    0.326523
     7  C    0.024667
     8  O   -0.490150
     9  C   -0.403895
    10  C    0.604464
    11  O   -0.413010
    12  O   -0.550594
    13  C    0.163700
    14  C   -0.513934
    15  O   -0.410645
    16  C   -0.723540
    17  C    1.020346
    18  Cl  -0.082400
    19  C   -0.625222
    20  C   -0.193617
    21  H    0.451477
    22  H    0.128943
    23  H    0.150431
    24  H    0.302201
    25  H    0.188535
    26  H    0.186260
    27  H    0.359602
    28  H    0.129227
    29  H    0.149469
    30  H    0.153171
    31  H    0.164321
    32  H    0.165692
    33  H    0.150783
    34  H    0.134916
 Sum of Mulliken atomic charges =   0.00000
 Mulliken charges with hydrogens summed into heavy atoms:
              1
     1  O   -0.163040
     2  C   -0.044833
     3  C    0.090971
     4  C    0.533133
     5  N   -0.512473
     6  C    0.455466
     7  C    0.175098
     8  O   -0.187950
     9  C   -0.029100
    10  C    0.604464
    11  O   -0.053408
    12  O   -0.550594
    13  C    0.292927
    14  C   -0.046973
    15  O   -0.410645
    16  C   -0.557848
    17  C    1.020346
    18  Cl  -0.082400
    19  C   -0.474438
    20  C   -0.058702
 Sum of Mulliken charges with hydrogens summed into heavy atoms =   0.00000
 Electronic spatial extent (au):  <R**2>=           7319.5206
 Charge=              0.0000 electrons
 Dipole moment (field-independent basis, Debye):
    X=             -1.5839    Y=              4.9409    Z=             -1.3533  Tot=              5.3622
 Quadrupole moment (field-independent basis, Debye-Ang):
   XX=           -128.0885   YY=           -125.5260   ZZ=           -127.6186
   XY=            -21.8124   XZ=             -2.0994   YZ=              0.0415
 Traceless Quadrupole moment (field-independent basis, Debye-Ang):
   XX=             -1.0108   YY=              1.5517   ZZ=             -0.5409
   XY=            -21.8124   XZ=             -2.0994   YZ=              0.0415
 Octapole moment (field-independent basis, Debye-Ang**2):
  XXX=            -70.2385  YYY=             33.0913  ZZZ=              3.1184  XYY=             10.1713
  XXY=             11.6154  XXZ=             28.1843  XZZ=            -30.9597  YZZ=             29.4562
  YYZ=            -22.0149  XYZ=            -18.0614
 Hexadecapole moment (field-independent basis, Debye-Ang**3):
 XXXX=          -6595.1649 YYYY=          -1582.5730 ZZZZ=          -1166.8194 XXXY=           -320.7020
 XXXZ=           -346.5153 YYYX=            -67.4609 YYYZ=             21.7342 ZZZX=            -44.6170
 ZZZY=             21.9424 XXYY=          -1406.8877 XXZZ=          -1284.3824 YYZZ=           -504.4327
 XXYZ=             27.3682 YYXZ=             94.1575 ZZXY=            -43.7799
 N-N= 1.706349099948D+03 E-N=-6.691903602184D+03  KE= 1.390554358915D+03
 1\1\GINC-PROD2-0057\SP\RB3LYP\6-311+G(2d,p)\C13H14Cl1N1O5\YUHENG\26-Ma
 r-2019\0\\# b3lyp/6-311+G(2d,p) nmr guess=read geom=check integral(ult
 rafinegrid) scrf=(iefpcm,read,solvent=methanol)\\Candidate Structure: 
 1b, Conformer: 8, NMR calculation with methanol solvation\\0,1\O,0,0.9
 94347257,-2.2955482076,-1.4523407597\C,0,1.8635026725,-1.4959638765,-0
 .8147810834\C,0,1.5725532201,-0.1526497686,-0.4976930663\C,0,0.2720552
 852,0.4051810747,-0.8629999587\N,0,-0.6373224224,-0.2279362928,-1.5130
 727014\C,0,-1.8296024774,0.6342688403,-1.5223459313\C,0,-2.9064359894,
 0.057537804,-0.5865822064\O,0,-3.5373060521,-1.0612334925,-1.181209313
 2\C,0,-2.3644688798,-0.3254975766,0.7972947919\C,0,-3.4786315892,-0.78
 48708902,1.7021907366\O,0,-4.4212322617,0.1540459498,1.8539334915\O,0,
 -3.5350041698,-1.8675819897,2.2423721635\C,0,-1.2498136199,2.015814811
 7,-1.1480618441\C,0,-2.0695288799,2.9576203218,-0.2936127511\O,0,-0.01
 25533939,1.6603764553,-0.4642436601\C,0,2.5193349054,0.635360692,0.171
 6074864\C,0,3.7390126065,0.0849884798,0.5176439738\Cl,0,4.9248550742,1
 .0643007578,1.3509833311\C,0,4.0406368662,-1.2447443617,0.2111066298\C
 ,0,3.1076663856,-2.0269705541,-0.4504967404\H,0,0.1668363625,-1.781914
 6454,-1.6414253195\H,0,-2.2684229236,0.6638714471,-2.5244717422\H,0,-3
 .6984594676,0.8058536458,-0.4756900587\H,0,-2.8692589511,-1.7490174567
 ,-1.3543093964\H,0,-1.8613734381,0.525602393,1.2709698507\H,0,-1.64573
 88902,-1.1436753515,0.7082063311\H,0,-5.1240978902,-0.1886698123,2.445
 2935153\H,0,-0.9454825077,2.5238976846,-2.071458089\H,0,-2.3547654095,
 2.5147342065,0.6631401059\H,0,-1.4979354716,3.8671809973,-0.096350363\
 H,0,-2.9790330247,3.2386406824,-0.8323144252\H,0,2.2858007538,1.668747
 5453,0.4096332576\H,0,5.0038897275,-1.6611606254,0.4920038658\H,0,3.32
 30677547,-3.0625692445,-0.6961508493\\Version=EM64L-G09RevB.01\State=1
 -A\HF=-1395.2553978\RMSD=8.983e-09\Dipole=-0.6231546,1.9439137,-0.5324
 42\Quadrupole=-0.7515285,1.1536617,-0.4021332,-16.2169886,-1.5608218,0
 .0308522\PG=C01 [X(C13H14Cl1N1O5)]\\@


 THE DIFFICULTY IN SCIENCE IS OFTEN NOT SO MUCH HOW
 TO MAKE A DISCOVERY BUT RATHER TO KNOW ONE HAS MADE IT.

                                                   -- J. D. BERNAL
 Job cpu time:  0 days  2 hours 33 minutes 20.9 seconds.
 File lengths (MBytes):  RWF=    327 Int=      0 D2E=      0 Chk=     32 Scr=      1
 Normal termination of Gaussian 09 at Tue Mar 26 03:07:14 2019.
