 Entering Gaussian System, Link 0=g09
 Initial command:
 /home/yuheng/proj/yuheng/g09/l1.exe /home/yuheng/proj/yuheng/g09_scratch/Gau-126202.inp -scrdir=/home/yuheng/proj/yuheng/g09_scratch/
 Entering Link 1 = /home/yuheng/proj/yuheng/g09/l1.exe PID=    126203.
  
 Copyright (c) 1988,1990,1992,1993,1995,1998,2003,2009,2010,
            Gaussian, Inc.  All Rights Reserved.
  
 This is part of the Gaussian(R) 09 program.  It is based on
 the Gaussian(R) 03 system (copyright 2003, Gaussian, Inc.),
 the Gaussian(R) 98 system (copyright 1998, Gaussian, Inc.),
 the Gaussian(R) 94 system (copyright 1995, Gaussian, Inc.),
 the Gaussian 92(TM) system (copyright 1992, Gaussian, Inc.),
 the Gaussian 90(TM) system (copyright 1990, Gaussian, Inc.),
 the Gaussian 88(TM) system (copyright 1988, Gaussian, Inc.),
 the Gaussian 86(TM) system (copyright 1986, Carnegie Mellon
 University), and the Gaussian 82(TM) system (copyright 1983,
 Carnegie Mellon University). Gaussian is a federally registered
 trademark of Gaussian, Inc.
  
 This software contains proprietary and confidential information,
 including trade secrets, belonging to Gaussian, Inc.
  
 This software is provided under written license and may be
 used, copied, transmitted, or stored only in accord with that
 written license.
  
 The following legend is applicable only to US Government
 contracts under FAR:
  
                    RESTRICTED RIGHTS LEGEND
  
 Use, reproduction and disclosure by the US Government is
 subject to restrictions as set forth in subparagraphs (a)
 and (c) of the Commercial Computer Software - Restricted
 Rights clause in FAR 52.227-19.
  
 Gaussian, Inc.
 340 Quinnipiac St., Bldg. 40, Wallingford CT 06492
  
  
 ---------------------------------------------------------------
 Warning -- This program may not be used in any manner that
 competes with the business of Gaussian, Inc. or will provide
 assistance to any competitor of Gaussian, Inc.  The licensee
 of this program is prohibited from giving any competitor of
 Gaussian, Inc. access to this program.  By using this program,
 the user acknowledges that Gaussian, Inc. is engaged in the
 business of creating and licensing software in the field of
 computational chemistry and represents and warrants to the
 licensee that it is not a competitor of Gaussian, Inc. and that
 it will not use this program in any manner prohibited above.
 ---------------------------------------------------------------
  

 Cite this work as:
 Gaussian 09, Revision B.01,
 M. J. Frisch, G. W. Trucks, H. B. Schlegel, G. E. Scuseria, 
 M. A. Robb, J. R. Cheeseman, G. Scalmani, V. Barone, B. Mennucci, 
 G. A. Petersson, H. Nakatsuji, M. Caricato, X. Li, H. P. Hratchian, 
 A. F. Izmaylov, J. Bloino, G. Zheng, J. L. Sonnenberg, M. Hada, 
 M. Ehara, K. Toyota, R. Fukuda, J. Hasegawa, M. Ishida, T. Nakajima, 
 Y. Honda, O. Kitao, H. Nakai, T. Vreven, J. A. Montgomery, Jr., 
 J. E. Peralta, F. Ogliaro, M. Bearpark, J. J. Heyd, E. Brothers, 
 K. N. Kudin, V. N. Staroverov, T. Keith, R. Kobayashi, J. Normand, 
 K. Raghavachari, A. Rendell, J. C. Burant, S. S. Iyengar, J. Tomasi, 
 M. Cossi, N. Rega, J. M. Millam, M. Klene, J. E. Knox, J. B. Cross, 
 V. Bakken, C. Adamo, J. Jaramillo, R. Gomperts, R. E. Stratmann, 
 O. Yazyev, A. J. Austin, R. Cammi, C. Pomelli, J. W. Ochterski, 
 R. L. Martin, K. Morokuma, V. G. Zakrzewski, G. A. Voth, 
 P. Salvador, J. J. Dannenberg, S. Dapprich, A. D. Daniels, 
 O. Farkas, J. B. Foresman, J. V. Ortiz, J. Cioslowski, 
 and D. J. Fox, Gaussian, Inc., Wallingford CT, 2010.
 
 ******************************************
 Gaussian 09:  EM64L-G09RevB.01 12-Aug-2010
                26-Mar-2019 
 ******************************************
 %mem=16gb
 %nprocshared=20
 Will use up to   20 processors via shared memory.
 %chk=1b-conf-16.chk
 ----------------------------------------------------------------------
 # b3lyp/6-311+G(2d,p) nmr guess=read geom=check integral(ultrafinegrid
 ) scrf=(iefpcm,read,solvent=methanol)
 ----------------------------------------------------------------------
 1/29=2,38=1,40=2/1;
 2/12=2,40=1/2;
 3/5=4,6=6,7=112,11=2,14=-4,16=1,25=1,30=1,70=2203,72=3,74=-5,75=-5,116=-2/1,2,8,3;
 4/5=1/1;
 5/5=2,38=6,53=3/2;
 8/6=1,10=90,11=11/1;
 10/13=100,45=16/2;
 6/7=2,8=2,9=2,10=2,28=1/1;
 99/9=1/99;
 ----------------------------------------------------------------------
 Candidate Structure: 1b, Conformer: 16, NMR calculation with methanol 
 solvation
 ----------------------------------------------------------------------
 Redundant internal coordinates taken from checkpoint file:
 1b-conf-16.chk
 Charge =  0 Multiplicity = 1
 O,0,0.3768049551,-2.1722811442,-1.288094757
 C,0,1.3529330378,-1.3641220602,-0.847108683
 C,0,1.1400510552,-0.0050656507,-0.5238915821
 C,0,-0.1970901295,0.5742845305,-0.661253609
 N,0,-1.221311982,-0.0480225002,-1.1227442331
 C,0,-2.3820936267,0.8416503983,-0.9595650594
 C,0,-3.3419232344,0.3113492938,0.132709626
 O,0,-4.2221040396,-0.6638339834,-0.3845914085
 C,0,-2.5951066239,-0.1748472524,1.3852019395
 C,0,-1.8288517059,-1.4614284957,1.1751982066
 O,0,-0.6252261921,-1.4371808805,1.7554936755
 O,0,-2.2747794282,-2.4559087999,0.6330331364
 C,0,-1.7195261244,2.2127811212,-0.6798024533
 C,0,-2.3369440096,3.1347609747,0.3480842281
 O,0,-0.3793684218,1.8412997587,-0.2482005292
 C,0,2.2012485267,0.780069915,-0.0515747759
 C,0,3.4553180711,0.2149676539,0.09237636
 Cl,0,4.7810084856,1.1944913015,0.680373469
 C,0,3.6828227194,-1.1274930563,-0.2255583676
 C,0,2.6362858921,-1.9090032442,-0.6918489115
 H,0,-0.4651729293,-1.6528818236,-1.3578361684
 H,0,-2.953271962,0.8793377157,-1.8913594423
 H,0,-3.9865323203,1.1425298143,0.434738963
 H,0,-3.7411419337,-1.5018063885,-0.4791009054
 H,0,-3.3156521412,-0.3626249181,2.1901050249
 H,0,-1.8976196829,0.5895093273,1.7401727534
 H,0,-0.2000695244,-2.3128500055,1.6400026903
 H,0,-1.5877507727,2.7394885067,-1.6318442504
 H,0,-2.4193493723,2.6568043324,1.3274151358
 H,0,-1.7238875113,4.0323007361,0.4525243868
 H,0,-3.3341792977,3.4410725589,0.0204237506
 H,0,2.0272979968,1.8223195211,0.1963900059
 H,0,4.674434558,-1.5533212444,-0.1058353791
 H,0,2.7895764369,-2.9542571306,-0.9418583542
 Recover connectivity data from disk.
                          Input orientation:                          
 ---------------------------------------------------------------------
 Center     Atomic      Atomic             Coordinates (Angstroms)
 Number     Number       Type             X           Y           Z
 ---------------------------------------------------------------------
      1          8           0        0.376805   -2.172281   -1.288095
      2          6           0        1.352933   -1.364122   -0.847109
      3          6           0        1.140051   -0.005066   -0.523892
      4          6           0       -0.197090    0.574285   -0.661254
      5          7           0       -1.221312   -0.048023   -1.122744
      6          6           0       -2.382094    0.841650   -0.959565
      7          6           0       -3.341923    0.311349    0.132710
      8          8           0       -4.222104   -0.663834   -0.384591
      9          6           0       -2.595107   -0.174847    1.385202
     10          6           0       -1.828852   -1.461428    1.175198
     11          8           0       -0.625226   -1.437181    1.755494
     12          8           0       -2.274779   -2.455909    0.633033
     13          6           0       -1.719526    2.212781   -0.679802
     14          6           0       -2.336944    3.134761    0.348084
     15          8           0       -0.379368    1.841300   -0.248201
     16          6           0        2.201249    0.780070   -0.051575
     17          6           0        3.455318    0.214968    0.092376
     18         17           0        4.781008    1.194491    0.680373
     19          6           0        3.682823   -1.127493   -0.225558
     20          6           0        2.636286   -1.909003   -0.691849
     21          1           0       -0.465173   -1.652882   -1.357836
     22          1           0       -2.953272    0.879338   -1.891359
     23          1           0       -3.986532    1.142530    0.434739
     24          1           0       -3.741142   -1.501806   -0.479101
     25          1           0       -3.315652   -0.362625    2.190105
     26          1           0       -1.897620    0.589509    1.740173
     27          1           0       -0.200070   -2.312850    1.640003
     28          1           0       -1.587751    2.739489   -1.631844
     29          1           0       -2.419349    2.656804    1.327415
     30          1           0       -1.723888    4.032301    0.452524
     31          1           0       -3.334179    3.441073    0.020424
     32          1           0        2.027298    1.822320    0.196390
     33          1           0        4.674435   -1.553321   -0.105835
     34          1           0        2.789576   -2.954257   -0.941858
 ---------------------------------------------------------------------
                    Distance matrix (angstroms):
                    1          2          3          4          5
     1  O    0.000000
     2  C    1.341796   0.000000
     3  C    2.421441   1.413090   0.000000
     4  C    2.875049   2.488882   1.463715   0.000000
     5  N    2.663418   2.904278   2.436494   1.284239   0.000000
     6  C    4.099175   4.339182   3.648595   2.221422   1.471584
     7  C    4.692126   5.080248   4.540852   3.254149   2.490443
     8  O    4.923586   5.637851   5.404266   4.220215   3.151007
     9  C    4.468615   4.688774   4.198198   3.240318   2.862375
    10  C    3.382018   3.771332   3.717833   3.190506   2.765386
    11  O    3.287532   3.269861   3.219123   3.173320   3.251051
    12  O    3.286651   4.067323   4.359607   3.895387   3.160770
    13  C    4.898305   4.718287   3.622200   2.236700   2.357042
    14  C    6.181117   5.940002   4.765328   3.486227   3.679413
    15  O    4.214500   3.692464   2.407012   1.345052   2.245715
    16  C    3.684285   2.439277   1.402020   2.483160   3.680633
    17  C    4.133026   2.792164   2.405964   3.746619   4.839065
    18  Cl   5.882774   4.542181   4.018179   5.192888   6.389282
    19  C    3.626337   2.422954   2.795449   4.259061   5.101052
    20  C    2.351612   1.402853   2.427325   3.767715   4.304646
    21  H    0.991749   1.910428   2.446938   2.348907   1.789578
    22  H    4.556942   4.966586   4.405387   3.033604   2.109609
    23  H    5.744113   6.036251   5.340206   3.985470   3.389633
    24  H    4.249882   5.109206   5.105711   4.111403   2.979481
    25  H    5.385812   5.658918   5.229428   4.328218   3.931947
    26  H    4.687312   4.590947   3.834964   2.942598   3.010005
    27  H    2.987691   3.081822   3.435728   3.692064   3.715528
    28  H    5.301238   5.109114   4.025051   2.750289   2.857215
    29  H    6.162746   5.926763   4.814792   3.637324   3.841180
    30  H    6.777868   6.346436   5.045380   3.940747   4.402623
    31  H    6.855171   6.768422   5.673701   4.304008   4.236133
    32  H    4.569973   3.420098   2.155307   2.690919   3.973885
    33  H    4.500052   3.408468   3.881203   5.344806   6.169267
    34  H    2.559850   2.145099   3.404902   4.631363   4.956425
                    6          7          8          9         10
     6  C    0.000000
     7  C    1.547758   0.000000
     8  O    2.445959   1.411843   0.000000
     9  C    2.564483   1.537159   2.453242   0.000000
    10  C    3.188646   2.553215   2.965933   1.512131   0.000000
    11  O    3.956160   3.615415   4.256238   2.368762   1.336430
    12  O    3.663575   3.007796   2.835342   2.423140   1.217286
    13  C    1.548309   2.628268   3.824259   3.275920   4.117377
    14  C    2.640140   3.004667   4.303483   3.477897   4.697577
    15  O    2.348669   3.355976   4.589217   3.412089   3.877509
    16  C    4.672822   5.566005   6.592057   5.097177   4.771896
    17  C    5.964452   6.798044   7.742261   6.199274   5.648474
    18  Cl   7.356897   8.189133   9.254380   7.535181   7.140659
    19  C    6.418684   7.179532   7.920110   6.550914   5.696682
    20  C    5.729040   6.430307   6.977275   5.889729   4.860416
    21  H    3.171103   3.788881   4.004991   3.774316   2.883147
    22  H    1.093575   2.137877   2.502332   3.460555   4.018368
    23  H    2.146820   1.094351   1.997435   2.138908   3.461859
    24  H    2.751299   1.954794   0.970801   2.559266   2.528871
    25  H    3.498890   2.165134   2.746169   1.096501   2.109024
    26  H    2.754428   2.178835   3.389501   1.093953   2.128443
    27  H    4.633557   4.362293   4.795310   3.220587   1.895757
    28  H    2.164424   3.476583   4.480855   4.314010   5.058193
    29  H    2.920009   2.789198   4.148196   2.837689   4.163136
    30  H    3.550702   4.070111   5.384750   4.396476   5.542052
    31  H    2.936638   3.131746   4.219325   3.934936   5.256808
    32  H    4.662690   5.578138   6.750817   5.173835   5.158581
    33  H    7.500622   8.233826   8.945238   7.547822   6.628893
    34  H    6.415247   7.029521   7.397314   6.491159   5.295313
                   11         12         13         14         15
    11  O    0.000000
    12  O    2.240257   0.000000
    13  C    4.522210   4.881445   0.000000
    14  C    5.080692   5.598272   1.512548   0.000000
    15  O    3.850152   4.778615   1.456125   2.420888   0.000000
    16  C    4.021276   5.565525   4.221351   5.128303   2.797223
    17  C    4.705996   6.345070   5.600583   6.491601   4.179207
    18  Cl   6.108106   7.944294   6.718924   7.385141   5.283001
    19  C    4.751816   6.164000   6.367821   7.398207   5.031465
    20  C    4.104822   5.115954   5.996862   7.159192   4.832781
    21  H    3.124895   2.807684   4.120253   5.416199   3.667146
    22  H    4.907708   4.237544   2.183591   3.237577   3.201612
    23  H    4.438207   3.989759   2.743530   2.587979   3.737154
    24  H    3.834908   2.073011   4.233837   4.914648   4.746704
    25  H    2.929496   2.808866   4.173332   4.072176   4.407310
    26  H    2.393051   3.262297   2.919419   2.934148   2.797444
    27  H    0.980251   2.310601   5.307691   5.992641   4.566664
    28  H    5.463065   5.709101   1.095979   2.153520   2.044847
    29  H    4.490306   5.161676   2.171597   1.092851   2.703541
    30  H    5.728876   6.514056   2.143090   1.091936   2.664438
    31  H    5.843479   6.022625   2.146188   1.093465   3.370807
    32  H    4.482302   6.082908   3.867669   4.559838   2.447461
    33  H    5.618224   7.046429   7.442829   8.446513   6.089716
    34  H    4.608482   5.326944   6.862868   8.063579   5.789710
                   16         17         18         19         20
    16  C    0.000000
    17  C    1.383023   0.000000
    18  Cl   2.713421   1.750046   0.000000
    19  C    2.421596   1.398228   2.723662   0.000000
    20  C    2.798271   2.407712   4.014288   1.386876   0.000000
    21  H    3.838669   4.578453   6.307476   4.331738   3.182481
    22  H    5.473915   6.741411   8.156729   7.130218   6.360568
    23  H    6.217436   7.507245   8.771135   8.025460   7.378535
    24  H    6.379792   7.420440   9.013404   7.437718   6.393955
    25  H    6.063586   7.111970   8.382113   7.443057   6.791356
    26  H    4.477432   5.613329   6.789201   6.160644   5.719580
    27  H    4.265433   4.706046   6.167128   4.467912   3.693986
    28  H    4.548966   5.897346   6.949422   6.686563   6.350949
    29  H    5.174328   6.480710   7.375783   7.346369   7.105172
    30  H    5.122286   6.444060   7.100616   7.504384   7.457868
    31  H    6.142237   7.517327   8.446238   8.376790   8.048422
    32  H    1.085371   2.152589   2.865542   3.408841   3.883633
    33  H    3.400633   2.156937   2.860062   1.085798   2.150342
    34  H    3.883804   3.399535   4.879503   2.155932   1.085614
                   21         22         23         24         25
    21  H    0.000000
    22  H    3.589905   0.000000
    23  H    4.840209   2.558834   0.000000
    24  H    3.395140   2.878378   2.808529   0.000000
    25  H    4.730527   4.281605   2.407671   2.933161   0.000000
    26  H    4.083856   3.792945   2.524588   3.563334   1.766300
    27  H    3.081051   5.499155   5.265891   4.205661   3.716564
    28  H    4.541825   2.322102   3.546152   4.894333   5.216900
    29  H    5.440843   3.715504   2.354986   4.722783   3.265662
    30  H    6.097792   4.116595   3.670239   5.963521   4.986810
    31  H    6.006594   3.219082   2.424978   4.984696   4.379038
    32  H    4.550281   5.482152   6.056821   6.691861   6.107045
    33  H    5.290840   8.202916   9.086924   8.424008   8.398249
    34  H    3.529874   6.969814   8.037060   6.706269   7.334819
                   26         27         28         29         30
    26  H    0.000000
    27  H    3.363837   0.000000
    28  H    4.011101   6.177116   0.000000
    29  H    2.171700   5.451640   3.074997   0.000000
    30  H    3.679814   6.632727   2.456520   1.772312   0.000000
    31  H    3.626659   6.749319   2.504441   1.777700   1.768983
    32  H    4.394094   4.913737   4.153579   4.663503   4.361309
    33  H    7.154814   5.233128   7.744152   8.372642   8.511725
    34  H    6.459209   4.001924   7.214971   7.985394   8.433721
                   31         32         33         34
    31  H    0.000000
    32  H    5.603282   0.000000
    33  H    9.439163   4.300421   0.000000
    34  H    8.906549   4.969141   2.492839   0.000000
 Stoichiometry    C13H14ClNO5
 Framework group  C1[X(C13H14ClNO5)]
 Deg. of freedom    96
 Full point group                 C1      NOp   1
 Largest Abelian subgroup         C1      NOp   1
 Largest concise Abelian subgroup C1      NOp   1
                         Standard orientation:                         
 ---------------------------------------------------------------------
 Center     Atomic      Atomic             Coordinates (Angstroms)
 Number     Number       Type             X           Y           Z
 ---------------------------------------------------------------------
      1          8           0        0.376805   -2.172281   -1.288095
      2          6           0        1.352933   -1.364122   -0.847109
      3          6           0        1.140051   -0.005066   -0.523892
      4          6           0       -0.197090    0.574285   -0.661254
      5          7           0       -1.221312   -0.048023   -1.122744
      6          6           0       -2.382094    0.841650   -0.959565
      7          6           0       -3.341923    0.311349    0.132710
      8          8           0       -4.222104   -0.663834   -0.384591
      9          6           0       -2.595107   -0.174847    1.385202
     10          6           0       -1.828852   -1.461428    1.175198
     11          8           0       -0.625226   -1.437181    1.755494
     12          8           0       -2.274779   -2.455909    0.633033
     13          6           0       -1.719526    2.212781   -0.679802
     14          6           0       -2.336944    3.134761    0.348084
     15          8           0       -0.379368    1.841300   -0.248201
     16          6           0        2.201249    0.780070   -0.051575
     17          6           0        3.455318    0.214968    0.092376
     18         17           0        4.781008    1.194491    0.680373
     19          6           0        3.682823   -1.127493   -0.225558
     20          6           0        2.636286   -1.909003   -0.691849
     21          1           0       -0.465173   -1.652882   -1.357836
     22          1           0       -2.953272    0.879338   -1.891359
     23          1           0       -3.986532    1.142530    0.434739
     24          1           0       -3.741142   -1.501806   -0.479101
     25          1           0       -3.315652   -0.362625    2.190105
     26          1           0       -1.897620    0.589509    1.740173
     27          1           0       -0.200070   -2.312850    1.640003
     28          1           0       -1.587751    2.739489   -1.631844
     29          1           0       -2.419349    2.656804    1.327415
     30          1           0       -1.723888    4.032301    0.452524
     31          1           0       -3.334179    3.441073    0.020424
     32          1           0        2.027298    1.822320    0.196390
     33          1           0        4.674435   -1.553321   -0.105835
     34          1           0        2.789576   -2.954257   -0.941858
 ---------------------------------------------------------------------
 Rotational constants (GHZ):      0.5531542      0.2069400      0.1736754
 Standard basis: 6-311+G(2d,p) (5D, 7F)
 There are   632 symmetry adapted basis functions of A   symmetry.
 Integral buffers will be    131072 words long.
 Raffenetti 2 integral format.
 Two-electron integral symmetry is turned on.
   632 basis functions,   969 primitive gaussians,   672 cartesian basis functions
    78 alpha electrons       78 beta electrons
       nuclear repulsion energy      1785.2275738927 Hartrees.
 NAtoms=   34 NActive=   34 NUniq=   34 SFac= 1.00D+00 NAtFMM=   50 NAOKFM=F Big=F
 Using the following non-standard input for PCM:
 radii=bondi
 --- end of non-standard input.
 ------------------------------------------------------------------------------
 Polarizable Continuum Model (PCM)
 =================================
 Model                : PCM.
 Atomic radii         : Bondi.
 Polarization charges : Total charges.
 Charge compensation  : None.
 Solution method      : Matrix inversion.
 Cavity type          : Scaled VdW (van der Waals Surface) (Alpha=1.100).
 Cavity algorithm     : GePol (No added spheres)
                        Default sphere list used, NSphG=   34.
                        Lebedev-Laikov grids with approx.  5.0 points / Ang**2.
                        Smoothing algorithm: Karplus/York (Gamma=1.0000).
                        Polarization charges: spherical gaussians, with
                                              point-specific exponents (IZeta= 3).
                        Self-potential: point-specific (ISelfS= 7).
                        Self-field    : sphere-specific E.n sum rule (ISelfD= 2).
 Solvent              : Methanol, Eps=  32.613000 Eps(inf)=   1.765709
 ------------------------------------------------------------------------------
 One-electron integrals computed using PRISM.
 NBasis=   632 RedAO= T  NBF=   632
 NBsUse=   630 1.00D-06 NBFU=   630
 Initial guess read from the checkpoint file:  1b-conf-16.chk
 B after Tr=     0.000000    0.000000    0.000000
         Rot=    1.000000    0.000000    0.000000    0.000000 Ang=   0.00 deg.
 Initial guess orbital symmetries:
       Occupied  (A) (A) (A) (A) (A) (A) (A) (A) (A) (A) (A) (A)
                 (A) (A) (A) (A) (A) (A) (A) (A) (A) (A) (A) (A)
                 (A) (A) (A) (A) (A) (A) (A) (A) (A) (A) (A) (A)
                 (A) (A) (A) (A) (A) (A) (A) (A) (A) (A) (A) (A)
                 (A) (A) (A) (A) (A) (A) (A) (A) (A) (A) (A) (A)
                 (A) (A) (A) (A) (A) (A) (A) (A) (A) (A) (A) (A)
                 (A) (A) (A) (A) (A) (A)
       Virtual   (A) (A) (A) (A) (A) (A) (A) (A) (A) (A) (A) (A)
                 (A) (A) (A) (A) (A) (A) (A) (A) (A) (A) (A) (A)
                 (A) (A) (A) (A) (A) (A) (A) (A) (A) (A) (A) (A)
                 (A) (A) (A) (A) (A) (A) (A) (A) (A) (A) (A) (A)
                 (A) (A) (A) (A) (A) (A) (A) (A) (A) (A) (A) (A)
                 (A) (A) (A) (A) (A) (A) (A) (A) (A) (A) (A) (A)
                 (A) (A) (A) (A) (A) (A) (A) (A) (A) (A) (A) (A)
                 (A) (A) (A) (A) (A) (A) (A) (A) (A) (A) (A) (A)
                 (A) (A) (A) (A) (A) (A) (A) (A) (A) (A) (A) (A)
                 (A) (A) (A) (A) (A) (A) (A) (A) (A) (A) (A) (A)
                 (A) (A) (A) (A) (A) (A) (A) (A) (A) (A) (A) (A)
                 (A) (A) (A) (A) (A) (A) (A) (A) (A) (A) (A) (A)
                 (A) (A) (A) (A) (A) (A) (A) (A) (A) (A) (A) (A)
                 (A) (A) (A) (A) (A) (A) (A) (A) (A) (A) (A) (A)
                 (A) (A) (A) (A) (A) (A) (A) (A) (A) (A) (A) (A)
                 (A) (A) (A) (A) (A) (A) (A) (A) (A) (A) (A) (A)
                 (A) (A) (A) (A) (A) (A) (A) (A) (A) (A) (A) (A)
                 (A) (A) (A) (A) (A) (A) (A) (A) (A) (A) (A) (A)
                 (A) (A) (A) (A) (A) (A) (A) (A) (A) (A) (A) (A)
                 (A) (A) (A) (A) (A) (A) (A) (A) (A) (A) (A) (A)
                 (A) (A) (A) (A) (A) (A) (A) (A) (A) (A) (A) (A)
                 (A) (A) (A) (A) (A) (A) (A) (A) (A) (A) (A) (A)
                 (A) (A) (A) (A) (A) (A) (A) (A) (A) (A) (A) (A)
                 (A) (A) (A) (A) (A) (A) (A) (A) (A) (A) (A) (A)
                 (A) (A) (A) (A) (A) (A) (A) (A) (A) (A) (A) (A)
                 (A) (A) (A) (A) (A) (A) (A) (A) (A) (A) (A) (A)
                 (A) (A) (A) (A) (A) (A) (A) (A) (A) (A) (A) (A)
                 (A) (A) (A) (A) (A) (A) (A) (A) (A) (A) (A) (A)
                 (A) (A) (A) (A) (A) (A) (A) (A) (A) (A) (A) (A)
                 (A) (A) (A) (A) (A) (A) (A) (A) (A) (A) (A) (A)
                 (A) (A) (A) (A) (A) (A) (A) (A) (A) (A) (A) (A)
                 (A) (A) (A) (A) (A) (A) (A) (A) (A) (A) (A) (A)
                 (A) (A) (A) (A) (A) (A) (A) (A) (A) (A) (A) (A)
                 (A) (A) (A) (A) (A) (A) (A) (A) (A) (A) (A) (A)
                 (A) (A) (A) (A) (A) (A) (A) (A) (A) (A) (A) (A)
                 (A) (A) (A) (A) (A) (A) (A) (A) (A) (A) (A) (A)
                 (A) (A) (A) (A) (A) (A) (A) (A) (A) (A) (A) (A)
                 (A) (A) (A) (A) (A) (A) (A) (A) (A) (A) (A) (A)
                 (A) (A) (A) (A) (A) (A) (A) (A) (A) (A) (A) (A)
                 (A) (A) (A) (A) (A) (A) (A) (A) (A) (A) (A) (A)
                 (A) (A) (A) (A) (A) (A) (A) (A) (A) (A) (A) (A)
                 (A) (A) (A) (A) (A) (A) (A) (A) (A) (A) (A) (A)
                 (A) (A) (A) (A) (A) (A) (A) (A) (A) (A) (A) (A)
                 (A) (A) (A) (A) (A) (A) (A) (A) (A) (A) (A) (A)
                 (A) (A) (A) (A) (A) (A) (A) (A) (A) (A) (A) (A)
                 (A) (A) (A) (A) (A) (A) (A) (A) (A) (A) (A) (A)
 Requested convergence on RMS density matrix=1.00D-08 within 128 cycles.
 Requested convergence on MAX density matrix=1.00D-06.
 Requested convergence on             energy=1.00D-06.
 No special actions if energy rises.
 Error on total polarization charges =  0.04984
 SCF Done:  E(RB3LYP) =  -1395.25157771     A.U. after   13 cycles
             Convg  =    0.5665D-08             -V/T =  2.0034
 Range of M.O.s used for correlation:     1   630
 NBasis=   632 NAE=    78 NBE=    78 NFC=     0 NFV=     0
 NROrb=    630 NOA=    78 NOB=    78 NVA=   552 NVB=   552

 **** Warning!!: The largest alpha MO coefficient is  0.14753495D+03

 NEqPCM:  Using equilibrium solvation (IEInf=0, Eps=  32.6130, EpsInf=   1.7657)
          Differentiating once with respect to magnetic field using GIAOs.
          Electric field/nuclear overlap derivatives assumed to be zero.
 FoFCou: FMM=F IPFlag=           0 FMFlag=    10101102 FMFlg1=           0
         NFxFlg=    40000000 DoJE=F BraDBF=F KetDBF=T FulRan=T
         Omega=  0.000000  0.000000  1.000000  0.000000  0.000000 ICntrl=    6100 IOpCl=  0
         NMat0=    1 NMatS0=    1 NMatT0=    0 NMatD0=    1 NMtDS0=    0 NMtDT0=    0
         I1Cent=           7 NGrid=        2422.
 Symmetry not used in FoFCou.
          There are     3 degrees of freedom in the 1st order CPHF.  IDoFFX=0.
      3 vectors produced by pass  0 Test12= 1.44D-12 3.33D-08 XBig12= 4.60D+02 8.60D+00.
 AX will form     3 AO Fock derivatives at one time.
      3 vectors produced by pass  1 Test12= 1.44D-12 3.33D-08 XBig12= 8.33D-01 3.06D-01.
      3 vectors produced by pass  2 Test12= 1.44D-12 3.33D-08 XBig12= 3.68D-03 3.57D-02.
      3 vectors produced by pass  3 Test12= 1.44D-12 3.33D-08 XBig12= 1.49D-05 1.29D-03.
      3 vectors produced by pass  4 Test12= 1.44D-12 3.33D-08 XBig12= 3.51D-08 5.52D-05.
      3 vectors produced by pass  5 Test12= 1.44D-12 3.33D-08 XBig12= 1.38D-10 3.04D-06.
      3 vectors produced by pass  6 Test12= 1.44D-12 3.33D-08 XBig12= 4.46D-13 1.86D-07.
 Inverted reduced A of dimension    21 with in-core refinement.
 Calculating GIAO nuclear magnetic shielding tensors.
 SCF GIAO Magnetic shielding tensor (ppm):
  1  O    Isotropic =   187.3414   Anisotropy =   133.6881
   XX=   154.4835   YX=    49.9904   ZX=   -17.1195
   XY=    29.5104   YY=   146.4541   ZY=   -27.1505
   XZ=   -31.5003   YZ=   -27.2426   ZZ=   261.0865
   Eigenvalues:   110.4046   175.1527   276.4668
  2  C    Isotropic =    15.6031   Anisotropy =   152.7848
   XX=   -30.1798   YX=   -19.5999   ZX=   -41.1088
   XY=   -18.2753   YY=   -19.5851   ZY=   -40.5889
   XZ=   -41.7847   YZ=   -40.6189   ZZ=    96.5742
   Eigenvalues:   -65.1475    -5.5028   117.4596
  3  C    Isotropic =    64.9642   Anisotropy =   143.5360
   XX=     9.9286   YX=    27.7246   ZX=   -29.0387
   XY=    16.1300   YY=    40.2323   ZY=   -30.1254
   XZ=   -31.7894   YZ=   -28.7680   ZZ=   144.7316
   Eigenvalues:    -3.0581    37.2958   160.6548
  4  C    Isotropic =     7.7172   Anisotropy =    90.0170
   XX=     8.6124   YX=    47.4594   ZX=    -0.3666
   XY=    51.8687   YY=   -45.2118   ZY=   -27.5254
   XZ=     3.5503   YZ=   -22.6925   ZZ=    59.7509
   Eigenvalues:   -78.4435    33.8665    67.7285
  5  N    Isotropic =    19.3278   Anisotropy =   254.3193
   XX=   -84.5473   YX=    84.6427   ZX=   -23.5092
   XY=    79.2288   YY=   -14.3464   ZY=   -62.2966
   XZ=   -48.0425   YZ=   -55.9819   ZZ=   156.8771
   Eigenvalues:  -138.6115     7.7208   188.8740
  6  C    Isotropic =   103.7292   Anisotropy =    26.0894
   XX=   117.8554   YX=     3.5776   ZX=     0.9519
   XY=    -9.9019   YY=   108.2379   ZY=     5.8475
   XZ=   -18.0171   YZ=     0.8707   ZZ=    85.0944
   Eigenvalues:    82.7540   107.3115   121.1222
  7  C    Isotropic =   106.4469   Anisotropy =    46.5873
   XX=   108.2745   YX=    22.8312   ZX=     7.2629
   XY=    28.7857   YY=   110.3636   ZY=     5.7575
   XZ=     8.1504   YZ=     5.2433   ZZ=   100.7026
   Eigenvalues:    83.2952    98.5404   137.5051
  8  O    Isotropic =   278.4879   Anisotropy =    24.2751
   XX=   286.6564   YX=    13.8993   ZX=     7.2870
   XY=    14.2852   YY=   263.8090   ZY=   -13.8114
   XZ=    -0.0696   YZ=   -12.8745   ZZ=   284.9983
   Eigenvalues:   251.5412   289.2511   294.6713
  9  C    Isotropic =   145.9020   Anisotropy =    20.1857
   XX=   141.5109   YX=    -2.2732   ZX=     8.7170
   XY=   -12.4021   YY=   153.6328   ZY=    -6.6840
   XZ=    -2.9744   YZ=    -4.2613   ZZ=   142.5622
   Eigenvalues:   138.0269   140.3199   159.3591
 10  C    Isotropic =    -2.8809   Anisotropy =   118.4502
   XX=   -66.6377   YX=    54.8281   ZX=   -44.1559
   XY=    27.9638   YY=     9.4551   ZY=   -13.1815
   XZ=   -58.6944   YZ=    -1.3741   ZZ=    48.5398
   Eigenvalues:   -98.6219    13.8933    76.0859
 11  O    Isotropic =   103.1593   Anisotropy =   178.2657
   XX=   209.7648   YX=   -50.8745   ZX=    20.9763
   XY=    45.9282   YY=   -26.5321   ZY=   -42.3651
   XZ=    40.5050   YZ=   -80.8441   ZZ=   126.2452
   Eigenvalues:   -48.5238   135.9986   222.0031
 12  O    Isotropic =   -57.2036   Anisotropy =   479.7798
   XX=  -179.6630   YX=   -17.3812   ZX=  -200.1190
   XY=    34.9161   YY=  -128.4227   ZY=  -134.7008
   XZ=  -182.2916   YZ=  -118.5768   ZZ=   136.4748
   Eigenvalues:  -285.9349  -148.3256   262.6495
 13  C    Isotropic =    99.4181   Anisotropy =    73.5522
   XX=   137.8057   YX=   -12.9203   ZX=    23.4412
   XY=   -16.7474   YY=    87.6133   ZY=     8.9618
   XZ=    24.2131   YZ=    -2.4231   ZZ=    72.8351
   Eigenvalues:    62.4521    87.3492   148.4528
 14  C    Isotropic =   168.2722   Anisotropy =    17.4337
   XX=   166.2336   YX=    -5.1811   ZX=    -0.9768
   XY=   -10.2246   YY=   166.8681   ZY=     6.7495
   XZ=    -5.7896   YZ=     5.4043   ZZ=   171.7149
   Eigenvalues:   158.5385   166.3835   179.8947
 15  O    Isotropic =   121.7468   Anisotropy =   139.8204
   XX=    33.5181   YX=   -25.6739   ZX=   -60.7849
   XY=   -14.9159   YY=   187.6589   ZY=    18.5369
   XZ=     3.3831   YZ=    56.5535   ZZ=   144.0633
   Eigenvalues:    25.7228   124.5571   214.9603
 16  C    Isotropic =    48.5212   Anisotropy =   156.7332
   XX=    42.1476   YX=    14.6992   ZX=   -23.3569
   XY=     8.1581   YY=   -30.4304   ZY=   -49.1982
   XZ=   -24.0170   YZ=   -47.3161   ZZ=   133.8463
   Eigenvalues:   -43.8379    36.3914   153.0100
 17  C    Isotropic =    47.7764   Anisotropy =    99.7075
   XX=    12.3124   YX=   -46.7978   ZX=   -37.9223
   XY=   -46.2811   YY=    35.1641   ZY=   -33.0404
   XZ=   -37.9242   YZ=   -33.0794   ZZ=    95.8526
   Eigenvalues:   -42.4439    71.5251   114.2480
 18  Cl   Isotropic =   709.3995   Anisotropy =   497.4829
   XX=   820.8759   YX=   219.1232   ZX=   123.2221
   XY=   218.1377   YY=   695.6921   ZY=    91.4429
   XZ=   124.3347   YZ=    92.4229   ZZ=   611.6307
   Eigenvalues:   530.8275   556.3163  1041.0548
 19  C    Isotropic =    42.2524   Anisotropy =   163.0679
   XX=   -31.8973   YX=    39.8121   ZX=   -33.3069
   XY=    41.0222   YY=    22.8612   ZY=   -25.4921
   XZ=   -33.9117   YZ=   -25.1272   ZZ=   135.7933
   Eigenvalues:   -55.1389    30.9318   150.9644
 20  C    Isotropic =    59.2988   Anisotropy =   147.2573
   XX=    51.0113   YX=    14.2635   ZX=   -22.3114
   XY=    16.7465   YY=   -13.6390   ZY=   -42.8049
   XZ=   -21.5699   YZ=   -42.4093   ZZ=   140.5240
   Eigenvalues:   -25.8702    46.2962   157.4703
 21  H    Isotropic =    20.4213   Anisotropy =    22.5145
   XX=    27.4560   YX=   -10.8623   ZX=     0.7132
   XY=    -8.3139   YY=    23.7519   ZY=     3.3102
   XZ=     1.2174   YZ=     2.9232   ZZ=    10.0560
   Eigenvalues:     8.7189    17.1141    35.4310
 22  H    Isotropic =    27.2682   Anisotropy =     4.7741
   XX=    27.3758   YX=     0.9752   ZX=     2.1687
   XY=    -0.4463   YY=    26.1864   ZY=    -1.2928
   XZ=     2.9162   YZ=    -0.4888   ZZ=    28.2425
   Eigenvalues:    24.7849    26.5688    30.4510
 23  H    Isotropic =    27.5069   Anisotropy =     5.5134
   XX=    28.6286   YX=     1.0540   ZX=    -0.1265
   XY=    -0.3204   YY=    30.7625   ZY=     1.3000
   XZ=    -0.8383   YZ=     2.2588   ZZ=    23.1296
   Eigenvalues:    22.6842    28.6541    31.1825
 24  H    Isotropic =    27.5236   Anisotropy =    17.1885
   XX=    26.9111   YX=    -4.9727   ZX=     3.0131
   XY=    -5.0111   YY=    36.8581   ZY=     2.4605
   XZ=     2.9801   YZ=     2.1805   ZZ=    18.8014
   Eigenvalues:    17.0407    26.5474    38.9826
 25  H    Isotropic =    29.0419   Anisotropy =     7.9823
   XX=    28.5958   YX=    -0.5338   ZX=    -2.5512
   XY=    -0.2688   YY=    26.4986   ZY=    -0.4790
   XZ=    -4.7654   YZ=    -0.6398   ZZ=    32.0312
   Eigenvalues:    25.7335    27.0287    34.3634
 26  H    Isotropic =    29.3673   Anisotropy =     2.4760
   XX=    29.0393   YX=    -0.0616   ZX=     1.4048
   XY=     2.1373   YY=    30.0683   ZY=     0.1523
   XZ=     0.4326   YZ=     0.4930   ZZ=    28.9942
   Eigenvalues:    27.9496    29.1342    31.0179
 27  H    Isotropic =    25.3417   Anisotropy =     9.1284
   XX=    26.5106   YX=    -6.7222   ZX=    -1.6668
   XY=    -3.0627   YY=    26.0694   ZY=    -1.9209
   XZ=    -1.3490   YZ=    -4.9173   ZZ=    23.4450
   Eigenvalues:    18.7113    25.8865    31.4273
 28  H    Isotropic =    26.7988   Anisotropy =     6.6279
   XX=    25.4158   YX=    -0.2644   ZX=     0.8727
   XY=    -0.7955   YY=    26.9789   ZY=    -2.6140
   XZ=     1.0192   YZ=    -4.3763   ZZ=    28.0018
   Eigenvalues:    23.9225    25.2566    31.2174
 29  H    Isotropic =    30.5925   Anisotropy =     4.6255
   XX=    26.6549   YX=    -0.0640   ZX=    -1.4457
   XY=     0.4860   YY=    31.8411   ZY=     0.1101
   XZ=    -1.8133   YZ=    -0.3584   ZZ=    33.2817
   Eigenvalues:    26.2702    31.8312    33.6762
 30  H    Isotropic =    30.0637   Anisotropy =     9.8526
   XX=    28.6087   YX=     2.1258   ZX=    -0.2157
   XY=     2.6515   YY=    35.4509   ZY=     2.0060
   XZ=     0.0743   YZ=     2.4794   ZZ=    26.1315
   Eigenvalues:    25.4821    28.0768    36.6321
 31  H    Isotropic =    30.3898   Anisotropy =     9.8043
   XX=    33.7850   YX=    -3.9203   ZX=     1.2251
   XY=    -4.2729   YY=    31.3529   ZY=    -0.1001
   XZ=     1.2028   YZ=     0.1681   ZZ=    26.0316
   Eigenvalues:    25.7289    28.5146    36.9260
 32  H    Isotropic =    23.7174   Anisotropy =    12.3103
   XX=    31.4573   YX=    -0.1657   ZX=     2.4913
   XY=     0.2097   YY=    21.0034   ZY=     0.6278
   XZ=     2.4739   YZ=     0.3723   ZZ=    18.6916
   Eigenvalues:    18.1427    21.0852    31.9243
 33  H    Isotropic =    24.0359   Anisotropy =     7.1161
   XX=    23.7238   YX=     1.6303   ZX=     1.1023
   XY=     1.0354   YY=    27.4838   ZY=     2.3633
   XZ=     0.8125   YZ=     2.5259   ZZ=    20.9002
   Eigenvalues:    20.0211    23.3067    28.7800
 34  H    Isotropic =    24.5184   Anisotropy =     5.6848
   XX=    28.1054   YX=    -0.6206   ZX=     1.0999
   XY=     0.2092   YY=    23.8570   ZY=     1.0995
   XZ=     1.2338   YZ=     0.9987   ZZ=    21.5929
   Eigenvalues:    20.9915    24.2556    28.3083
 End of Minotr Frequency-dependent properties file   721 does not exist.
 End of Minotr Frequency-dependent properties file   722 does not exist.

 **********************************************************************

            Population analysis using the SCF density.

 **********************************************************************

 Orbital symmetries:
       Occupied  (A) (A) (A) (A) (A) (A) (A) (A) (A) (A) (A) (A)
                 (A) (A) (A) (A) (A) (A) (A) (A) (A) (A) (A) (A)
                 (A) (A) (A) (A) (A) (A) (A) (A) (A) (A) (A) (A)
                 (A) (A) (A) (A) (A) (A) (A) (A) (A) (A) (A) (A)
                 (A) (A) (A) (A) (A) (A) (A) (A) (A) (A) (A) (A)
                 (A) (A) (A) (A) (A) (A) (A) (A) (A) (A) (A) (A)
                 (A) (A) (A) (A) (A) (A)
       Virtual   (A) (A) (A) (A) (A) (A) (A) (A) (A) (A) (A) (A)
                 (A) (A) (A) (A) (A) (A) (A) (A) (A) (A) (A) (A)
                 (A) (A) (A) (A) (A) (A) (A) (A) (A) (A) (A) (A)
                 (A) (A) (A) (A) (A) (A) (A) (A) (A) (A) (A) (A)
                 (A) (A) (A) (A) (A) (A) (A) (A) (A) (A) (A) (A)
                 (A) (A) (A) (A) (A) (A) (A) (A) (A) (A) (A) (A)
                 (A) (A) (A) (A) (A) (A) (A) (A) (A) (A) (A) (A)
                 (A) (A) (A) (A) (A) (A) (A) (A) (A) (A) (A) (A)
                 (A) (A) (A) (A) (A) (A) (A) (A) (A) (A) (A) (A)
                 (A) (A) (A) (A) (A) (A) (A) (A) (A) (A) (A) (A)
                 (A) (A) (A) (A) (A) (A) (A) (A) (A) (A) (A) (A)
                 (A) (A) (A) (A) (A) (A) (A) (A) (A) (A) (A) (A)
                 (A) (A) (A) (A) (A) (A) (A) (A) (A) (A) (A) (A)
                 (A) (A) (A) (A) (A) (A) (A) (A) (A) (A) (A) (A)
                 (A) (A) (A) (A) (A) (A) (A) (A) (A) (A) (A) (A)
                 (A) (A) (A) (A) (A) (A) (A) (A) (A) (A) (A) (A)
                 (A) (A) (A) (A) (A) (A) (A) (A) (A) (A) (A) (A)
                 (A) (A) (A) (A) (A) (A) (A) (A) (A) (A) (A) (A)
                 (A) (A) (A) (A) (A) (A) (A) (A) (A) (A) (A) (A)
                 (A) (A) (A) (A) (A) (A) (A) (A) (A) (A) (A) (A)
                 (A) (A) (A) (A) (A) (A) (A) (A) (A) (A) (A) (A)
                 (A) (A) (A) (A) (A) (A) (A) (A) (A) (A) (A) (A)
                 (A) (A) (A) (A) (A) (A) (A) (A) (A) (A) (A) (A)
                 (A) (A) (A) (A) (A) (A) (A) (A) (A) (A) (A) (A)
                 (A) (A) (A) (A) (A) (A) (A) (A) (A) (A) (A) (A)
                 (A) (A) (A) (A) (A) (A) (A) (A) (A) (A) (A) (A)
                 (A) (A) (A) (A) (A) (A) (A) (A) (A) (A) (A) (A)
                 (A) (A) (A) (A) (A) (A) (A) (A) (A) (A) (A) (A)
                 (A) (A) (A) (A) (A) (A) (A) (A) (A) (A) (A) (A)
                 (A) (A) (A) (A) (A) (A) (A) (A) (A) (A) (A) (A)
                 (A) (A) (A) (A) (A) (A) (A) (A) (A) (A) (A) (A)
                 (A) (A) (A) (A) (A) (A) (A) (A) (A) (A) (A) (A)
                 (A) (A) (A) (A) (A) (A) (A) (A) (A) (A) (A) (A)
                 (A) (A) (A) (A) (A) (A) (A) (A) (A) (A) (A) (A)
                 (A) (A) (A) (A) (A) (A) (A) (A) (A) (A) (A) (A)
                 (A) (A) (A) (A) (A) (A) (A) (A) (A) (A) (A) (A)
                 (A) (A) (A) (A) (A) (A) (A) (A) (A) (A) (A) (A)
                 (A) (A) (A) (A) (A) (A) (A) (A) (A) (A) (A) (A)
                 (A) (A) (A) (A) (A) (A) (A) (A) (A) (A) (A) (A)
                 (A) (A) (A) (A) (A) (A) (A) (A) (A) (A) (A) (A)
                 (A) (A) (A) (A) (A) (A) (A) (A) (A) (A) (A) (A)
                 (A) (A) (A) (A) (A) (A) (A) (A) (A) (A) (A) (A)
                 (A) (A) (A) (A) (A) (A) (A) (A) (A) (A) (A) (A)
                 (A) (A) (A) (A) (A) (A) (A) (A) (A) (A) (A) (A)
                 (A) (A) (A) (A) (A) (A) (A) (A) (A) (A) (A) (A)
                 (A) (A) (A) (A) (A) (A) (A) (A) (A) (A) (A) (A)
 The electronic state is 1-A.
 Alpha  occ. eigenvalues -- -101.55963 -19.18270 -19.17508 -19.15680 -19.13018
 Alpha  occ. eigenvalues --  -19.12839 -14.31523 -10.32266 -10.28610 -10.25711
 Alpha  occ. eigenvalues --  -10.24051 -10.23830 -10.23697 -10.21358 -10.20545
 Alpha  occ. eigenvalues --  -10.19868 -10.19746 -10.18997 -10.18637 -10.16736
 Alpha  occ. eigenvalues --   -9.47412  -7.23848  -7.22907  -7.22882  -1.12541
 Alpha  occ. eigenvalues --   -1.11367  -1.07501  -1.04216  -1.02982  -0.92703
 Alpha  occ. eigenvalues --   -0.90163  -0.85051  -0.82023  -0.78695  -0.77105
 Alpha  occ. eigenvalues --   -0.74081  -0.71731  -0.68216  -0.64596  -0.63457
 Alpha  occ. eigenvalues --   -0.61270  -0.60088  -0.58926  -0.55101  -0.53604
 Alpha  occ. eigenvalues --   -0.53049  -0.51546  -0.50503  -0.49761  -0.49006
 Alpha  occ. eigenvalues --   -0.47761  -0.46826  -0.46070  -0.45426  -0.44216
 Alpha  occ. eigenvalues --   -0.43859  -0.43431  -0.42625  -0.41643  -0.40892
 Alpha  occ. eigenvalues --   -0.40293  -0.39707  -0.39342  -0.39064  -0.38731
 Alpha  occ. eigenvalues --   -0.37166  -0.36775  -0.36143  -0.34537  -0.34102
 Alpha  occ. eigenvalues --   -0.32400  -0.32374  -0.30598  -0.30169  -0.29648
 Alpha  occ. eigenvalues --   -0.28146  -0.26065  -0.23407
 Alpha virt. eigenvalues --   -0.06294  -0.02163  -0.01566   0.00044   0.00851
 Alpha virt. eigenvalues --    0.01244   0.01509   0.02160   0.02774   0.03253
 Alpha virt. eigenvalues --    0.03372   0.04286   0.04513   0.04894   0.05395
 Alpha virt. eigenvalues --    0.05729   0.06215   0.06719   0.07165   0.07557
 Alpha virt. eigenvalues --    0.07916   0.08357   0.08706   0.09116   0.09678
 Alpha virt. eigenvalues --    0.09907   0.10265   0.11002   0.11202   0.11700
 Alpha virt. eigenvalues --    0.12083   0.12501   0.12819   0.13333   0.13881
 Alpha virt. eigenvalues --    0.14021   0.14138   0.14496   0.14699   0.15147
 Alpha virt. eigenvalues --    0.15368   0.15511   0.15800   0.16454   0.16594
 Alpha virt. eigenvalues --    0.17103   0.17598   0.17641   0.17983   0.18301
 Alpha virt. eigenvalues --    0.18758   0.18968   0.19388   0.19629   0.19889
 Alpha virt. eigenvalues --    0.20604   0.20704   0.20837   0.21074   0.21904
 Alpha virt. eigenvalues --    0.22015   0.22249   0.22512   0.22811   0.23119
 Alpha virt. eigenvalues --    0.23515   0.23871   0.24148   0.24649   0.25003
 Alpha virt. eigenvalues --    0.25491   0.25737   0.25932   0.26544   0.26674
 Alpha virt. eigenvalues --    0.26712   0.26889   0.27644   0.28185   0.28307
 Alpha virt. eigenvalues --    0.28994   0.29327   0.29836   0.30272   0.30390
 Alpha virt. eigenvalues --    0.30920   0.31402   0.31470   0.32158   0.32332
 Alpha virt. eigenvalues --    0.33285   0.33800   0.33877   0.34261   0.34551
 Alpha virt. eigenvalues --    0.34648   0.34964   0.35355   0.36034   0.36127
 Alpha virt. eigenvalues --    0.37633   0.37963   0.38206   0.38800   0.39043
 Alpha virt. eigenvalues --    0.39983   0.40485   0.40985   0.41390   0.42665
 Alpha virt. eigenvalues --    0.43010   0.43824   0.44237   0.44621   0.45125
 Alpha virt. eigenvalues --    0.45568   0.46182   0.46743   0.47026   0.47416
 Alpha virt. eigenvalues --    0.48199   0.48747   0.49552   0.50329   0.50435
 Alpha virt. eigenvalues --    0.51162   0.52770   0.53354   0.53537   0.53831
 Alpha virt. eigenvalues --    0.54277   0.54724   0.55190   0.56059   0.57399
 Alpha virt. eigenvalues --    0.57898   0.58292   0.58641   0.59155   0.60055
 Alpha virt. eigenvalues --    0.60435   0.61121   0.61515   0.61631   0.62184
 Alpha virt. eigenvalues --    0.62975   0.63284   0.64109   0.64927   0.65398
 Alpha virt. eigenvalues --    0.65874   0.66049   0.66330   0.67249   0.68049
 Alpha virt. eigenvalues --    0.68219   0.69207   0.69794   0.70755   0.70971
 Alpha virt. eigenvalues --    0.71438   0.72120   0.72221   0.73077   0.74159
 Alpha virt. eigenvalues --    0.74346   0.75566   0.75981   0.76143   0.76468
 Alpha virt. eigenvalues --    0.77086   0.77824   0.78122   0.79054   0.79147
 Alpha virt. eigenvalues --    0.80091   0.80358   0.80669   0.81262   0.82038
 Alpha virt. eigenvalues --    0.82741   0.83991   0.84469   0.84975   0.86056
 Alpha virt. eigenvalues --    0.88292   0.88955   0.89279   0.89709   0.90771
 Alpha virt. eigenvalues --    0.92053   0.92095   0.94077   0.95205   0.95488
 Alpha virt. eigenvalues --    0.96384   0.96615   0.97422   0.98033   0.98943
 Alpha virt. eigenvalues --    1.00170   1.01693   1.02817   1.03729   1.04658
 Alpha virt. eigenvalues --    1.04844   1.05334   1.06347   1.07530   1.07940
 Alpha virt. eigenvalues --    1.09301   1.10131   1.11028   1.11823   1.12949
 Alpha virt. eigenvalues --    1.13103   1.13653   1.14559   1.15584   1.15660
 Alpha virt. eigenvalues --    1.16775   1.17051   1.17968   1.18708   1.19254
 Alpha virt. eigenvalues --    1.19791   1.20011   1.20706   1.21436   1.22382
 Alpha virt. eigenvalues --    1.23316   1.24072   1.24917   1.25669   1.26451
 Alpha virt. eigenvalues --    1.26577   1.28552   1.28771   1.29715   1.30612
 Alpha virt. eigenvalues --    1.31565   1.32248   1.33478   1.34523   1.34860
 Alpha virt. eigenvalues --    1.35597   1.36496   1.36685   1.37617   1.38410
 Alpha virt. eigenvalues --    1.39283   1.40061   1.40482   1.41453   1.42050
 Alpha virt. eigenvalues --    1.43379   1.43994   1.44160   1.44896   1.47607
 Alpha virt. eigenvalues --    1.49070   1.50371   1.50815   1.51666   1.52347
 Alpha virt. eigenvalues --    1.53619   1.55457   1.56383   1.57870   1.58646
 Alpha virt. eigenvalues --    1.58965   1.60401   1.61846   1.62664   1.63336
 Alpha virt. eigenvalues --    1.64845   1.67083   1.67364   1.68727   1.69180
 Alpha virt. eigenvalues --    1.71699   1.72433   1.73560   1.74512   1.75670
 Alpha virt. eigenvalues --    1.77189   1.77738   1.80058   1.80443   1.82196
 Alpha virt. eigenvalues --    1.83507   1.83876   1.84849   1.85943   1.87184
 Alpha virt. eigenvalues --    1.89348   1.90476   1.92348   1.92557   1.94163
 Alpha virt. eigenvalues --    1.94894   1.95660   1.98390   1.99247   2.01951
 Alpha virt. eigenvalues --    2.03573   2.04011   2.06322   2.07240   2.09885
 Alpha virt. eigenvalues --    2.10388   2.12260   2.14460   2.15079   2.16339
 Alpha virt. eigenvalues --    2.17850   2.19832   2.20206   2.21893   2.23960
 Alpha virt. eigenvalues --    2.24984   2.26436   2.28070   2.28127   2.29116
 Alpha virt. eigenvalues --    2.30700   2.32666   2.34282   2.34943   2.36513
 Alpha virt. eigenvalues --    2.37111   2.37213   2.38604   2.39677   2.40517
 Alpha virt. eigenvalues --    2.41312   2.41848   2.43395   2.44718   2.45203
 Alpha virt. eigenvalues --    2.47916   2.49000   2.49545   2.50139   2.51343
 Alpha virt. eigenvalues --    2.52047   2.55446   2.56552   2.57206   2.60216
 Alpha virt. eigenvalues --    2.63175   2.63755   2.64446   2.64735   2.65261
 Alpha virt. eigenvalues --    2.67462   2.69733   2.70646   2.71349   2.73241
 Alpha virt. eigenvalues --    2.75133   2.76109   2.78407   2.79524   2.81739
 Alpha virt. eigenvalues --    2.83054   2.84201   2.85201   2.85266   2.85449
 Alpha virt. eigenvalues --    2.86383   2.88178   2.91160   2.92067   2.93679
 Alpha virt. eigenvalues --    2.94228   2.98202   2.99875   3.00851   3.01702
 Alpha virt. eigenvalues --    3.03496   3.04368   3.06783   3.07041   3.08410
 Alpha virt. eigenvalues --    3.10605   3.11623   3.13350   3.15055   3.17705
 Alpha virt. eigenvalues --    3.20585   3.21364   3.24104   3.25449   3.26200
 Alpha virt. eigenvalues --    3.27650   3.30677   3.31417   3.32338   3.34396
 Alpha virt. eigenvalues --    3.36063   3.37018   3.37533   3.38348   3.38878
 Alpha virt. eigenvalues --    3.40974   3.41126   3.43271   3.44053   3.44513
 Alpha virt. eigenvalues --    3.45788   3.46455   3.47311   3.49610   3.50769
 Alpha virt. eigenvalues --    3.52415   3.53038   3.53751   3.54627   3.55190
 Alpha virt. eigenvalues --    3.56307   3.56870   3.57633   3.58881   3.59493
 Alpha virt. eigenvalues --    3.60189   3.60816   3.61483   3.62735   3.63313
 Alpha virt. eigenvalues --    3.64253   3.65223   3.67354   3.67555   3.68372
 Alpha virt. eigenvalues --    3.69103   3.70889   3.72106   3.73636   3.74071
 Alpha virt. eigenvalues --    3.75107   3.76755   3.77293   3.79043   3.80702
 Alpha virt. eigenvalues --    3.81451   3.82657   3.83384   3.83981   3.86232
 Alpha virt. eigenvalues --    3.87120   3.90613   3.91214   3.93124   3.94368
 Alpha virt. eigenvalues --    3.95575   3.99002   4.03292   4.04583   4.06637
 Alpha virt. eigenvalues --    4.08951   4.10412   4.12167   4.16503   4.18637
 Alpha virt. eigenvalues --    4.22375   4.23763   4.25860   4.27279   4.28722
 Alpha virt. eigenvalues --    4.36362   4.39771   4.40488   4.44119   4.46533
 Alpha virt. eigenvalues --    4.55497   4.57189   4.58985   4.74594   4.76306
 Alpha virt. eigenvalues --    4.88058   5.05287   5.06565   5.08711   5.11165
 Alpha virt. eigenvalues --    5.14352   5.18537   5.20590   5.22706   5.24761
 Alpha virt. eigenvalues --    5.26928   5.37471   5.42431   5.46392   5.50668
 Alpha virt. eigenvalues --    5.57723   5.59045   5.64501   5.78767   5.86410
 Alpha virt. eigenvalues --    5.93881   6.08270   6.13109   6.77116   6.84738
 Alpha virt. eigenvalues --    6.86838   6.87030   6.92139   6.96687   6.99026
 Alpha virt. eigenvalues --    7.00196   7.02402   7.03192   7.05804   7.07454
 Alpha virt. eigenvalues --    7.08243   7.10293   7.14637   7.16002   7.20621
 Alpha virt. eigenvalues --    7.23624   7.32276   7.33387   7.37022   7.37972
 Alpha virt. eigenvalues --    7.39790   7.42590   7.53470   9.89671  23.68111
 Alpha virt. eigenvalues --   23.90631  23.94279  23.96175  23.98145  24.00970
 Alpha virt. eigenvalues --   24.01962  24.04993  24.07163  24.09417  24.13975
 Alpha virt. eigenvalues --   24.18512  24.33095  25.87649  26.28241  27.41179
 Alpha virt. eigenvalues --   35.76964  49.96560  50.01508  50.03910  50.05597
 Alpha virt. eigenvalues --   50.08457 215.89860
          Condensed to atoms (all electrons):
              1          2          3          4          5          6
     1  O    8.287237   0.438676  -0.010876  -0.061803   0.008451  -0.005102
     2  C    0.438676  11.018519  -0.688271  -0.771074   0.142882   0.166551
     3  C   -0.010876  -0.688271   8.941153   0.538656  -0.080563  -0.347205
     4  C   -0.061803  -0.771074   0.538656   6.906570   0.150041  -0.133689
     5  N    0.008451   0.142882  -0.080563   0.150041   7.425439   0.036014
     6  C   -0.005102   0.166551  -0.347205  -0.133689   0.036014   9.152860
     7  C    0.011779   0.136209  -0.059299   0.210176   0.043733  -1.580095
     8  O    0.000839  -0.004849   0.003954  -0.000263   0.015851  -0.017244
     9  C   -0.015710   0.071304  -0.069781  -0.140594  -0.093233   0.707165
    10  C    0.029025  -0.196944   0.086686   0.048133  -0.018467  -0.065323
    11  O    0.012213   0.045709   0.024590  -0.034533   0.023182   0.014843
    12  O    0.005298  -0.008939  -0.008924   0.003960  -0.006204  -0.055925
    13  C   -0.010815  -0.260262   0.218758  -0.631316   0.226936  -2.359937
    14  C   -0.001254  -0.018094   0.044167  -0.175215   0.001790   0.108950
    15  O   -0.003445  -0.013007  -0.030578   0.424193  -0.096045   0.007458
    16  C    0.046147   0.163359   0.583953  -1.174211  -0.224257  -0.487800
    17  C   -0.047792  -1.271421  -1.316979   0.302760  -0.089618   0.000527
    18  Cl  -0.000429   0.094471   0.065038  -0.063626  -0.000621  -0.003256
    19  C    0.037845  -0.554114  -1.311639  -0.334716   0.004565  -0.015039
    20  C   -0.363912  -2.233313  -0.667744   0.366825   0.139354   0.179815
    21  H    0.233591   0.006066  -0.026511  -0.039501   0.048184   0.024060
    22  H    0.000552   0.010088  -0.005480  -0.023354  -0.054054   0.485152
    23  H    0.000020   0.001230   0.000830   0.006163   0.009958  -0.061946
    24  H   -0.000236  -0.002960   0.004159   0.001911   0.006802  -0.053847
    25  H    0.000074   0.001168   0.000585   0.002884   0.006173  -0.035593
    26  H   -0.000251   0.004042  -0.004017  -0.010904  -0.017189   0.042424
    27  H   -0.001784  -0.033376   0.022657   0.011437  -0.003212  -0.003647
    28  H    0.000077  -0.010593  -0.002824  -0.017240  -0.009354  -0.048379
    29  H    0.000007  -0.001755  -0.002009  -0.006260  -0.004699   0.001463
    30  H   -0.000001   0.000306   0.005148  -0.012663   0.000529  -0.012120
    31  H    0.000000   0.000201   0.000355  -0.004770  -0.000410   0.016597
    32  H   -0.000517   0.023356  -0.006928  -0.008275   0.000204   0.004725
    33  H   -0.000705   0.027114  -0.009987  -0.001095   0.000024   0.000051
    34  H    0.001751  -0.184910  -0.007467   0.010161  -0.000326  -0.000059
              7          8          9         10         11         12
     1  O    0.011779   0.000839  -0.015710   0.029025   0.012213   0.005298
     2  C    0.136209  -0.004849   0.071304  -0.196944   0.045709  -0.008939
     3  C   -0.059299   0.003954  -0.069781   0.086686   0.024590  -0.008924
     4  C    0.210176  -0.000263  -0.140594   0.048133  -0.034533   0.003960
     5  N    0.043733   0.015851  -0.093233  -0.018467   0.023182  -0.006204
     6  C   -1.580095  -0.017244   0.707165  -0.065323   0.014843  -0.055925
     7  C    7.540623   0.158334  -0.559334  -0.193521  -0.028799   0.041865
     8  O    0.158334   8.170163  -0.011372  -0.045948  -0.000387  -0.007158
     9  C   -0.559334  -0.011372   6.186914  -0.123514  -0.006879  -0.048864
    10  C   -0.193521  -0.045948  -0.123514   5.129442   0.334295   0.445032
    11  O   -0.028799  -0.000387  -0.006879   0.334295   7.868426  -0.102292
    12  O    0.041865  -0.007158  -0.048864   0.445032  -0.102292   8.224280
    13  C    0.197062   0.000332  -0.299280   0.129564  -0.015290   0.000345
    14  C   -0.361147   0.006597   0.021619   0.022771  -0.006367  -0.003340
    15  O    0.012855   0.000161   0.011493  -0.016760   0.002815   0.001669
    16  C   -0.123236   0.002014  -0.135520   0.182500  -0.022986  -0.007308
    17  C   -0.015308  -0.000137  -0.023279   0.045736  -0.020085  -0.000433
    18  Cl  -0.000604  -0.000002  -0.000300   0.001363  -0.000614  -0.000015
    19  C   -0.002359   0.000047  -0.008915   0.017889   0.005296  -0.000195
    20  C    0.073469  -0.001697   0.069710  -0.133717  -0.008219   0.018192
    21  H   -0.008356  -0.000696  -0.004913   0.007741   0.000871  -0.000864
    22  H   -0.052732  -0.002414   0.013946  -0.004687  -0.000104  -0.000247
    23  H    0.501820  -0.068434  -0.049648  -0.000674  -0.001018  -0.001610
    24  H    0.093485   0.263663  -0.038105   0.004217  -0.000550   0.012534
    25  H    0.008401  -0.000139   0.415885  -0.075331   0.003609  -0.002654
    26  H   -0.059830   0.010040   0.417297  -0.045089  -0.003512   0.007474
    27  H    0.009140   0.000202  -0.004040  -0.022541   0.272892   0.020853
    28  H    0.012713  -0.000648   0.000281   0.000189   0.000027   0.000030
    29  H   -0.003483   0.000774   0.002397   0.004790  -0.000042   0.000020
    30  H    0.005706  -0.000040  -0.000200   0.000964  -0.000006  -0.000003
    31  H   -0.020313   0.000111   0.007307  -0.001598   0.000010   0.000009
    32  H    0.000928   0.000000   0.000551  -0.000673   0.000261   0.000000
    33  H    0.000004   0.000000   0.000012  -0.000074   0.000001   0.000000
    34  H   -0.000038   0.000000   0.000092  -0.000257   0.000068   0.000032
             13         14         15         16         17         18
     1  O   -0.010815  -0.001254  -0.003445   0.046147  -0.047792  -0.000429
     2  C   -0.260262  -0.018094  -0.013007   0.163359  -1.271421   0.094471
     3  C    0.218758   0.044167  -0.030578   0.583953  -1.316979   0.065038
     4  C   -0.631316  -0.175215   0.424193  -1.174211   0.302760  -0.063626
     5  N    0.226936   0.001790  -0.096045  -0.224257  -0.089618  -0.000621
     6  C   -2.359937   0.108950   0.007458  -0.487800   0.000527  -0.003256
     7  C    0.197062  -0.361147   0.012855  -0.123236  -0.015308  -0.000604
     8  O    0.000332   0.006597   0.000161   0.002014  -0.000137  -0.000002
     9  C   -0.299280   0.021619   0.011493  -0.135520  -0.023279  -0.000300
    10  C    0.129564   0.022771  -0.016760   0.182500   0.045736   0.001363
    11  O   -0.015290  -0.006367   0.002815  -0.022986  -0.020085  -0.000614
    12  O    0.000345  -0.003340   0.001669  -0.007308  -0.000433  -0.000015
    13  C    7.871522   0.057889   0.041504   0.502764   0.011646   0.005295
    14  C    0.057889   5.786061  -0.128386   0.012535  -0.009208   0.001024
    15  O    0.041504  -0.128386   8.257907  -0.085613   0.031803  -0.000551
    16  C    0.502764   0.012535  -0.085613   9.732245   0.417081   0.275506
    17  C    0.011646  -0.009208   0.031803   0.417081   9.378197  -0.706373
    18  Cl   0.005295   0.001024  -0.000551   0.275506  -0.706373  17.102000
    19  C   -0.010003  -0.006712  -0.005230  -0.888108  -1.378438   0.317263
    20  C   -0.169323  -0.009549   0.009249  -2.393914  -0.252157   0.015591
    21  H   -0.006196   0.000291   0.004474  -0.016054   0.012562   0.000068
    22  H   -0.049708   0.013338   0.006768  -0.004380  -0.000785   0.000002
    23  H   -0.004592  -0.007458  -0.002944  -0.001352  -0.000118   0.000000
    24  H    0.015680   0.000877  -0.000968  -0.000092   0.000094   0.000000
    25  H    0.012876   0.001476   0.000224  -0.000226  -0.000210   0.000000
    26  H   -0.000751  -0.007581   0.007838   0.001514  -0.000202  -0.000023
    27  H   -0.000068  -0.000385   0.000158  -0.014673  -0.001981  -0.000131
    28  H    0.455950  -0.033833  -0.043655   0.016432   0.002380   0.000006
    29  H   -0.026513   0.396521   0.000091   0.005205   0.000281   0.000001
    30  H    0.011298   0.390197  -0.003863  -0.004500  -0.001016  -0.000007
    31  H   -0.070668   0.445666   0.007863   0.000011   0.000030   0.000000
    32  H   -0.000428  -0.002431   0.009531   0.397978  -0.091890  -0.010011
    33  H   -0.000022   0.000000  -0.000008   0.022570  -0.066517  -0.004641
    34  H    0.000204   0.000009   0.000013  -0.026617   0.058266  -0.000942
             19         20         21         22         23         24
     1  O    0.037845  -0.363912   0.233591   0.000552   0.000020  -0.000236
     2  C   -0.554114  -2.233313   0.006066   0.010088   0.001230  -0.002960
     3  C   -1.311639  -0.667744  -0.026511  -0.005480   0.000830   0.004159
     4  C   -0.334716   0.366825  -0.039501  -0.023354   0.006163   0.001911
     5  N    0.004565   0.139354   0.048184  -0.054054   0.009958   0.006802
     6  C   -0.015039   0.179815   0.024060   0.485152  -0.061946  -0.053847
     7  C   -0.002359   0.073469  -0.008356  -0.052732   0.501820   0.093485
     8  O    0.000047  -0.001697  -0.000696  -0.002414  -0.068434   0.263663
     9  C   -0.008915   0.069710  -0.004913   0.013946  -0.049648  -0.038105
    10  C    0.017889  -0.133717   0.007741  -0.004687  -0.000674   0.004217
    11  O    0.005296  -0.008219   0.000871  -0.000104  -0.001018  -0.000550
    12  O   -0.000195   0.018192  -0.000864  -0.000247  -0.001610   0.012534
    13  C   -0.010003  -0.169323  -0.006196  -0.049708  -0.004592   0.015680
    14  C   -0.006712  -0.009549   0.000291   0.013338  -0.007458   0.000877
    15  O   -0.005230   0.009249   0.004474   0.006768  -0.002944  -0.000968
    16  C   -0.888108  -2.393914  -0.016054  -0.004380  -0.001352  -0.000092
    17  C   -1.378438  -0.252157   0.012562  -0.000785  -0.000118   0.000094
    18  Cl   0.317263   0.015591   0.000068   0.000002   0.000000   0.000000
    19  C   10.306143   0.105559  -0.012932   0.000038  -0.000006  -0.000022
    20  C    0.105559  10.804901   0.064676   0.001343   0.000042   0.000175
    21  H   -0.012932   0.064676   0.283623  -0.000794  -0.000032  -0.000699
    22  H    0.000038   0.001343  -0.000794   0.559380  -0.003634  -0.000770
    23  H   -0.000006   0.000042  -0.000032  -0.003634   0.553402   0.007137
    24  H   -0.000022   0.000175  -0.000699  -0.000770   0.007137   0.388360
    25  H    0.000011  -0.000086  -0.000043  -0.000205  -0.008269  -0.000714
    26  H    0.000152  -0.000376   0.000042  -0.000128  -0.004255  -0.000983
    27  H    0.000324   0.022472  -0.000692  -0.000010   0.000028   0.000033
    28  H    0.000313  -0.001675  -0.000020  -0.012166  -0.000396  -0.000032
    29  H    0.000121  -0.000425  -0.000002  -0.000272  -0.003154  -0.000055
    30  H   -0.000044   0.000010   0.000001  -0.000209   0.000544   0.000003
    31  H   -0.000004   0.000007  -0.000001  -0.000292   0.000202  -0.000019
    32  H    0.015081   0.003491   0.000113  -0.000007  -0.000003   0.000000
    33  H    0.415999  -0.045624   0.000027   0.000000   0.000000   0.000000
    34  H   -0.101358   0.602160   0.001065   0.000000   0.000000   0.000000
             25         26         27         28         29         30
     1  O    0.000074  -0.000251  -0.001784   0.000077   0.000007  -0.000001
     2  C    0.001168   0.004042  -0.033376  -0.010593  -0.001755   0.000306
     3  C    0.000585  -0.004017   0.022657  -0.002824  -0.002009   0.005148
     4  C    0.002884  -0.010904   0.011437  -0.017240  -0.006260  -0.012663
     5  N    0.006173  -0.017189  -0.003212  -0.009354  -0.004699   0.000529
     6  C   -0.035593   0.042424  -0.003647  -0.048379   0.001463  -0.012120
     7  C    0.008401  -0.059830   0.009140   0.012713  -0.003483   0.005706
     8  O   -0.000139   0.010040   0.000202  -0.000648   0.000774  -0.000040
     9  C    0.415885   0.417297  -0.004040   0.000281   0.002397  -0.000200
    10  C   -0.075331  -0.045089  -0.022541   0.000189   0.004790   0.000964
    11  O    0.003609  -0.003512   0.272892   0.000027  -0.000042  -0.000006
    12  O   -0.002654   0.007474   0.020853   0.000030   0.000020  -0.000003
    13  C    0.012876  -0.000751  -0.000068   0.455950  -0.026513   0.011298
    14  C    0.001476  -0.007581  -0.000385  -0.033833   0.396521   0.390197
    15  O    0.000224   0.007838   0.000158  -0.043655   0.000091  -0.003863
    16  C   -0.000226   0.001514  -0.014673   0.016432   0.005205  -0.004500
    17  C   -0.000210  -0.000202  -0.001981   0.002380   0.000281  -0.001016
    18  Cl   0.000000  -0.000023  -0.000131   0.000006   0.000001  -0.000007
    19  C    0.000011   0.000152   0.000324   0.000313   0.000121  -0.000044
    20  C   -0.000086  -0.000376   0.022472  -0.001675  -0.000425   0.000010
    21  H   -0.000043   0.000042  -0.000692  -0.000020  -0.000002   0.000001
    22  H   -0.000205  -0.000128  -0.000010  -0.012166  -0.000272  -0.000209
    23  H   -0.008269  -0.004255   0.000028  -0.000396  -0.003154   0.000544
    24  H   -0.000714  -0.000983   0.000033  -0.000032  -0.000055   0.000003
    25  H    0.506739  -0.022799  -0.000270   0.000027   0.000080  -0.000023
    26  H   -0.022799   0.516302   0.001309   0.000153   0.003156  -0.000119
    27  H   -0.000270   0.001309   0.386005  -0.000002  -0.000011   0.000000
    28  H    0.000027   0.000153  -0.000002   0.570694   0.006476  -0.008071
    29  H    0.000080   0.003156  -0.000011   0.006476   0.533544  -0.027313
    30  H   -0.000023  -0.000119   0.000000  -0.008071  -0.027313   0.525549
    31  H   -0.000008  -0.000058   0.000000  -0.003374  -0.027708  -0.023637
    32  H   -0.000002   0.000006  -0.000002   0.000014  -0.000001   0.000005
    33  H    0.000000   0.000000   0.000002   0.000000   0.000000   0.000000
    34  H    0.000000   0.000000  -0.000052   0.000000   0.000000   0.000000
             31         32         33         34
     1  O    0.000000  -0.000517  -0.000705   0.001751
     2  C    0.000201   0.023356   0.027114  -0.184910
     3  C    0.000355  -0.006928  -0.009987  -0.007467
     4  C   -0.004770  -0.008275  -0.001095   0.010161
     5  N   -0.000410   0.000204   0.000024  -0.000326
     6  C    0.016597   0.004725   0.000051  -0.000059
     7  C   -0.020313   0.000928   0.000004  -0.000038
     8  O    0.000111   0.000000   0.000000   0.000000
     9  C    0.007307   0.000551   0.000012   0.000092
    10  C   -0.001598  -0.000673  -0.000074  -0.000257
    11  O    0.000010   0.000261   0.000001   0.000068
    12  O    0.000009   0.000000   0.000000   0.000032
    13  C   -0.070668  -0.000428  -0.000022   0.000204
    14  C    0.445666  -0.002431   0.000000   0.000009
    15  O    0.007863   0.009531  -0.000008   0.000013
    16  C    0.000011   0.397978   0.022570  -0.026617
    17  C    0.000030  -0.091890  -0.066517   0.058266
    18  Cl   0.000000  -0.010011  -0.004641  -0.000942
    19  C   -0.000004   0.015081   0.415999  -0.101358
    20  C    0.000007   0.003491  -0.045624   0.602160
    21  H   -0.000001   0.000113   0.000027   0.001065
    22  H   -0.000292  -0.000007   0.000000   0.000000
    23  H    0.000202  -0.000003   0.000000   0.000000
    24  H   -0.000019   0.000000   0.000000   0.000000
    25  H   -0.000008  -0.000002   0.000000   0.000000
    26  H   -0.000058   0.000006   0.000000   0.000000
    27  H    0.000000  -0.000002   0.000002  -0.000052
    28  H   -0.003374   0.000014   0.000000   0.000000
    29  H   -0.027708  -0.000001   0.000000   0.000000
    30  H   -0.023637   0.000005   0.000000   0.000000
    31  H    0.509905  -0.000004   0.000000   0.000000
    32  H   -0.000004   0.497969  -0.000111   0.000044
    33  H    0.000000  -0.000111   0.516760  -0.004798
    34  H    0.000000   0.000044  -0.004798   0.517705
 Mulliken atomic charges:
              1
     1  O   -0.588951
     2  C   -0.097373
     3  C    0.116393
     4  C    0.661235
     5  N   -0.591862
     6  C    0.337550
     7  C    0.010151
     8  O   -0.471652
     9  C   -0.292492
    10  C    0.454781
    11  O   -0.357426
    12  O   -0.526617
    13  C    0.155547
    14  C   -0.540818
    15  O   -0.407016
    16  C   -0.750966
    17  C    1.032583
    18  Cl  -0.085485
    19  C   -0.596812
    20  C   -0.195310
    21  H    0.430852
    22  H    0.125823
    23  H    0.138167
    24  H    0.300924
    25  H    0.186358
    26  H    0.166315
    27  H    0.339363
    28  H    0.126501
    29  H    0.148775
    30  H    0.153572
    31  H    0.164589
    32  H    0.167028
    33  H    0.151018
    34  H    0.135254
 Sum of Mulliken atomic charges =   0.00000
 Mulliken charges with hydrogens summed into heavy atoms:
              1
     1  O   -0.158099
     2  C   -0.097373
     3  C    0.116393
     4  C    0.661235
     5  N   -0.591862
     6  C    0.463372
     7  C    0.148319
     8  O   -0.170729
     9  C    0.060181
    10  C    0.454781
    11  O   -0.018062
    12  O   -0.526617
    13  C    0.282047
    14  C   -0.073882
    15  O   -0.407016
    16  C   -0.583938
    17  C    1.032583
    18  Cl  -0.085485
    19  C   -0.445794
    20  C   -0.060056
 Sum of Mulliken charges with hydrogens summed into heavy atoms =   0.00000
 Electronic spatial extent (au):  <R**2>=           6194.2411
 Charge=              0.0000 electrons
 Dipole moment (field-independent basis, Debye):
    X=             -0.2673    Y=              3.9745    Z=              1.5735  Tot=              4.2830
 Quadrupole moment (field-independent basis, Debye-Ang):
   XX=           -137.2669   YY=           -120.1568   ZZ=           -123.1508
   XY=            -24.2493   XZ=             -4.9475   YZ=             -5.6415
 Traceless Quadrupole moment (field-independent basis, Debye-Ang):
   XX=            -10.4087   YY=              6.7014   ZZ=              3.7073
   XY=            -24.2493   XZ=             -4.9475   YZ=             -5.6415
 Octapole moment (field-independent basis, Debye-Ang**2):
  XXX=             30.5627  YYY=             26.6432  ZZZ=             13.1551  XYY=              2.3601
  XXY=             10.9498  XXZ=             10.3159  XZZ=            -25.5226  YZZ=              1.2316
  YYZ=              6.1995  XYZ=              0.8079
 Hexadecapole moment (field-independent basis, Debye-Ang**3):
 XXXX=          -6104.3379 YYYY=          -1848.4734 ZZZZ=           -690.3299 XXXY=           -273.8240
 XXXZ=            -88.9921 YYYX=            -99.1556 YYYZ=            -37.1763 ZZZX=             -0.0461
 ZZZY=            -33.4271 XXYY=          -1175.7745 XXZZ=          -1035.0927 YYZZ=           -411.8581
 XXYZ=             11.8802 YYXZ=             29.2783 ZZXY=              9.7599
 N-N= 1.785227573893D+03 E-N=-6.850021482679D+03  KE= 1.390548171572D+03
 1\1\GINC-PROD2-0020\SP\RB3LYP\6-311+G(2d,p)\C13H14Cl1N1O5\YUHENG\26-Ma
 r-2019\0\\# b3lyp/6-311+G(2d,p) nmr guess=read geom=check integral(ult
 rafinegrid) scrf=(iefpcm,read,solvent=methanol)\\Candidate Structure: 
 1b, Conformer: 16, NMR calculation with methanol solvation\\0,1\O,0,0.
 3768049551,-2.1722811442,-1.288094757\C,0,1.3529330378,-1.3641220602,-
 0.847108683\C,0,1.1400510552,-0.0050656507,-0.5238915821\C,0,-0.197090
 1295,0.5742845305,-0.661253609\N,0,-1.221311982,-0.0480225002,-1.12274
 42331\C,0,-2.3820936267,0.8416503983,-0.9595650594\C,0,-3.3419232344,0
 .3113492938,0.132709626\O,0,-4.2221040396,-0.6638339834,-0.3845914085\
 C,0,-2.5951066239,-0.1748472524,1.3852019395\C,0,-1.8288517059,-1.4614
 284957,1.1751982066\O,0,-0.6252261921,-1.4371808805,1.7554936755\O,0,-
 2.2747794282,-2.4559087999,0.6330331364\C,0,-1.7195261244,2.2127811212
 ,-0.6798024533\C,0,-2.3369440096,3.1347609747,0.3480842281\O,0,-0.3793
 684218,1.8412997587,-0.2482005292\C,0,2.2012485267,0.780069915,-0.0515
 747759\C,0,3.4553180711,0.2149676539,0.09237636\Cl,0,4.7810084856,1.19
 44913015,0.680373469\C,0,3.6828227194,-1.1274930563,-0.2255583676\C,0,
 2.6362858921,-1.9090032442,-0.6918489115\H,0,-0.4651729293,-1.65288182
 36,-1.3578361684\H,0,-2.953271962,0.8793377157,-1.8913594423\H,0,-3.98
 65323203,1.1425298143,0.434738963\H,0,-3.7411419337,-1.5018063885,-0.4
 791009054\H,0,-3.3156521412,-0.3626249181,2.1901050249\H,0,-1.89761968
 29,0.5895093273,1.7401727534\H,0,-0.2000695244,-2.3128500055,1.6400026
 903\H,0,-1.5877507727,2.7394885067,-1.6318442504\H,0,-2.4193493723,2.6
 568043324,1.3274151358\H,0,-1.7238875113,4.0323007361,0.4525243868\H,0
 ,-3.3341792977,3.4410725589,0.0204237506\H,0,2.0272979968,1.8223195211
 ,0.1963900059\H,0,4.674434558,-1.5533212444,-0.1058353791\H,0,2.789576
 4369,-2.9542571306,-0.9418583542\\Version=EM64L-G09RevB.01\State=1-A\H
 F=-1395.2515777\RMSD=5.665e-09\Dipole=-0.1051525,1.5637082,0.6190678\Q
 uadrupole=-7.7386142,4.9822905,2.7563237,-18.0287623,-3.678343,-4.1943
 452\PG=C01 [X(C13H14Cl1N1O5)]\\@


 EXPERIENCE IS THE FRUIT OF THE TREE OF ERRORS.
 Job cpu time:  0 days  2 hours 53 minutes 40.0 seconds.
 File lengths (MBytes):  RWF=    325 Int=      0 D2E=      0 Chk=     32 Scr=      1
 Normal termination of Gaussian 09 at Tue Mar 26 03:00:28 2019.
