 Entering Gaussian System, Link 0=g09
 Initial command:
 /home/yuheng/proj/yuheng/g09/l1.exe /home/yuheng/proj/yuheng/g09_scratch/Gau-62978.inp -scrdir=/home/yuheng/proj/yuheng/g09_scratch/
 Entering Link 1 = /home/yuheng/proj/yuheng/g09/l1.exe PID=     62979.
  
 Copyright (c) 1988,1990,1992,1993,1995,1998,2003,2009,2010,
            Gaussian, Inc.  All Rights Reserved.
  
 This is part of the Gaussian(R) 09 program.  It is based on
 the Gaussian(R) 03 system (copyright 2003, Gaussian, Inc.),
 the Gaussian(R) 98 system (copyright 1998, Gaussian, Inc.),
 the Gaussian(R) 94 system (copyright 1995, Gaussian, Inc.),
 the Gaussian 92(TM) system (copyright 1992, Gaussian, Inc.),
 the Gaussian 90(TM) system (copyright 1990, Gaussian, Inc.),
 the Gaussian 88(TM) system (copyright 1988, Gaussian, Inc.),
 the Gaussian 86(TM) system (copyright 1986, Carnegie Mellon
 University), and the Gaussian 82(TM) system (copyright 1983,
 Carnegie Mellon University). Gaussian is a federally registered
 trademark of Gaussian, Inc.
  
 This software contains proprietary and confidential information,
 including trade secrets, belonging to Gaussian, Inc.
  
 This software is provided under written license and may be
 used, copied, transmitted, or stored only in accord with that
 written license.
  
 The following legend is applicable only to US Government
 contracts under FAR:
  
                    RESTRICTED RIGHTS LEGEND
  
 Use, reproduction and disclosure by the US Government is
 subject to restrictions as set forth in subparagraphs (a)
 and (c) of the Commercial Computer Software - Restricted
 Rights clause in FAR 52.227-19.
  
 Gaussian, Inc.
 340 Quinnipiac St., Bldg. 40, Wallingford CT 06492
  
  
 ---------------------------------------------------------------
 Warning -- This program may not be used in any manner that
 competes with the business of Gaussian, Inc. or will provide
 assistance to any competitor of Gaussian, Inc.  The licensee
 of this program is prohibited from giving any competitor of
 Gaussian, Inc. access to this program.  By using this program,
 the user acknowledges that Gaussian, Inc. is engaged in the
 business of creating and licensing software in the field of
 computational chemistry and represents and warrants to the
 licensee that it is not a competitor of Gaussian, Inc. and that
 it will not use this program in any manner prohibited above.
 ---------------------------------------------------------------
  

 Cite this work as:
 Gaussian 09, Revision B.01,
 M. J. Frisch, G. W. Trucks, H. B. Schlegel, G. E. Scuseria, 
 M. A. Robb, J. R. Cheeseman, G. Scalmani, V. Barone, B. Mennucci, 
 G. A. Petersson, H. Nakatsuji, M. Caricato, X. Li, H. P. Hratchian, 
 A. F. Izmaylov, J. Bloino, G. Zheng, J. L. Sonnenberg, M. Hada, 
 M. Ehara, K. Toyota, R. Fukuda, J. Hasegawa, M. Ishida, T. Nakajima, 
 Y. Honda, O. Kitao, H. Nakai, T. Vreven, J. A. Montgomery, Jr., 
 J. E. Peralta, F. Ogliaro, M. Bearpark, J. J. Heyd, E. Brothers, 
 K. N. Kudin, V. N. Staroverov, T. Keith, R. Kobayashi, J. Normand, 
 K. Raghavachari, A. Rendell, J. C. Burant, S. S. Iyengar, J. Tomasi, 
 M. Cossi, N. Rega, J. M. Millam, M. Klene, J. E. Knox, J. B. Cross, 
 V. Bakken, C. Adamo, J. Jaramillo, R. Gomperts, R. E. Stratmann, 
 O. Yazyev, A. J. Austin, R. Cammi, C. Pomelli, J. W. Ochterski, 
 R. L. Martin, K. Morokuma, V. G. Zakrzewski, G. A. Voth, 
 P. Salvador, J. J. Dannenberg, S. Dapprich, A. D. Daniels, 
 O. Farkas, J. B. Foresman, J. V. Ortiz, J. Cioslowski, 
 and D. J. Fox, Gaussian, Inc., Wallingford CT, 2010.
 
 ******************************************
 Gaussian 09:  EM64L-G09RevB.01 12-Aug-2010
                26-Mar-2019 
 ******************************************
 %mem=16gb
 %nprocshared=20
 Will use up to   20 processors via shared memory.
 %chk=1b-conf-10.chk
 ----------------------------------------------------------------------
 # b3lyp/6-311+G(2d,p) nmr guess=read geom=check integral(ultrafinegrid
 ) scrf=(iefpcm,read,solvent=methanol)
 ----------------------------------------------------------------------
 1/29=2,38=1,40=2/1;
 2/12=2,40=1/2;
 3/5=4,6=6,7=112,11=2,14=-4,16=1,25=1,30=1,70=2203,72=3,74=-5,75=-5,116=-2/1,2,8,3;
 4/5=1/1;
 5/5=2,38=6,53=3/2;
 8/6=1,10=90,11=11/1;
 10/13=100,45=16/2;
 6/7=2,8=2,9=2,10=2,28=1/1;
 99/9=1/99;
 ----------------------------------------------------------------------
 Candidate Structure: 1b, Conformer: 10, NMR calculation with methanol 
 solvation
 ----------------------------------------------------------------------
 Redundant internal coordinates taken from checkpoint file:
 1b-conf-10.chk
 Charge =  0 Multiplicity = 1
 O,0,-1.9437822981,3.9171400568,-2.8024302661
 C,0,-2.1920095663,3.4440169927,-1.5605700655
 C,0,-1.1399117226,2.8431956692,-0.8496990799
 C,0,0.226053763,2.7493797399,-1.4008842141
 N,0,0.9884832088,1.7312649689,-1.2987291425
 C,0,2.2852368328,2.1524647319,-1.8591028885
 C,0,2.9920136989,0.9698274118,-2.5200644475
 O,0,2.2216115051,0.3838734684,-3.5530288327
 C,0,4.3383662605,1.3374605689,-3.131481222
 C,0,5.3934390968,1.667410077,-2.1061784601
 O,0,6.4993393691,2.1561074616,-2.6774217983
 O,0,5.2876962606,1.5025781424,-0.9096624689
 C,0,1.9256431026,3.3987114748,-2.7010179695
 C,0,1.5539618343,3.2038710392,-4.1628959019
 O,0,0.7226285286,3.8496473539,-2.0133034526
 C,0,-1.3824237193,2.290319355,0.4109625057
 C,0,-2.6526302343,2.3559178067,0.9630836888
 Cl,0,-2.9415467558,1.6708764182,2.5458453467
 C,0,-3.6990630088,2.9638369312,0.2746196403
 C,0,-3.465356417,3.5012096182,-0.9851132322
 H,0,-2.7597966883,4.2710494198,-3.2012761198
 H,0,2.9190275491,2.4660065853,-1.0167285548
 H,0,3.1670868122,0.2343338035,-1.7218588349
 H,0,1.3640951536,0.121635554,-3.1762809345
 H,0,4.2626926134,2.1727995222,-3.8347298823
 H,0,4.7072860154,0.4823819273,-3.7107553745
 H,0,7.1679131061,2.3305268043,-1.9815373731
 H,0,2.6696799625,4.190954827,-2.5859591001
 H,0,0.7478015754,2.4738875345,-4.2613721637
 H,0,1.2154667684,4.1609741405,-4.567684679
 H,0,2.4026453617,2.8509836629,-4.751782269
 H,0,-0.5645710939,1.8198995999,0.9488416522
 H,0,-4.6904320586,3.0134923047,0.7155158123
 H,0,-4.2793998156,3.9642100275,-1.5384009181
 Recover connectivity data from disk.
                          Input orientation:                          
 ---------------------------------------------------------------------
 Center     Atomic      Atomic             Coordinates (Angstroms)
 Number     Number       Type             X           Y           Z
 ---------------------------------------------------------------------
      1          8           0       -1.943782    3.917140   -2.802430
      2          6           0       -2.192010    3.444017   -1.560570
      3          6           0       -1.139912    2.843196   -0.849699
      4          6           0        0.226054    2.749380   -1.400884
      5          7           0        0.988483    1.731265   -1.298729
      6          6           0        2.285237    2.152465   -1.859103
      7          6           0        2.992014    0.969827   -2.520064
      8          8           0        2.221612    0.383873   -3.553029
      9          6           0        4.338366    1.337461   -3.131481
     10          6           0        5.393439    1.667410   -2.106178
     11          8           0        6.499339    2.156107   -2.677422
     12          8           0        5.287696    1.502578   -0.909662
     13          6           0        1.925643    3.398711   -2.701018
     14          6           0        1.553962    3.203871   -4.162896
     15          8           0        0.722629    3.849647   -2.013303
     16          6           0       -1.382424    2.290319    0.410963
     17          6           0       -2.652630    2.355918    0.963084
     18         17           0       -2.941547    1.670876    2.545845
     19          6           0       -3.699063    2.963837    0.274620
     20          6           0       -3.465356    3.501210   -0.985113
     21          1           0       -2.759797    4.271049   -3.201276
     22          1           0        2.919028    2.466007   -1.016729
     23          1           0        3.167087    0.234334   -1.721859
     24          1           0        1.364095    0.121636   -3.176281
     25          1           0        4.262693    2.172800   -3.834730
     26          1           0        4.707286    0.482382   -3.710755
     27          1           0        7.167913    2.330527   -1.981537
     28          1           0        2.669680    4.190955   -2.585959
     29          1           0        0.747802    2.473888   -4.261372
     30          1           0        1.215467    4.160974   -4.567685
     31          1           0        2.402645    2.850984   -4.751782
     32          1           0       -0.564571    1.819900    0.948842
     33          1           0       -4.690432    3.013492    0.715516
     34          1           0       -4.279400    3.964210   -1.538401
 ---------------------------------------------------------------------
                    Distance matrix (angstroms):
                    1          2          3          4          5
     1  O    0.000000
     2  C    1.351917   0.000000
     3  C    2.369119   1.404718   0.000000
     4  C    2.834816   2.520923   1.475963   0.000000
     5  N    3.954409   3.621825   2.442966   1.276045   0.000000
     6  C    4.678520   4.669364   3.636983   2.192375   1.474109
     7  C    5.755733   5.823774   4.834505   3.474177   2.466897
     8  O    5.513427   5.728387   4.965490   3.769562   2.901368
     9  C    6.799148   7.039258   6.122524   4.679700   3.838721
    10  C    7.705898   7.809805   6.756174   5.326347   4.478804
    11  O    8.625727   8.856953   7.884847   6.429279   5.696562
    12  O    7.855378   7.754925   6.566201   5.236033   4.322835
    13  C    3.905318   4.272907   3.624032   2.236198   2.371721
    14  C    3.820188   4.567502   4.285361   3.098162   3.269830
    15  O    2.781550   2.977351   2.415777   1.353600   2.251408
    16  C    3.645211   2.423507   1.397767   2.465913   2.976035
    17  C    4.137508   2.786568   2.410796   3.745661   4.331708
    18  Cl   5.886025   4.535249   4.018699   5.174315   5.498139
    19  C    3.668519   2.422747   2.797839   4.273154   5.095856
    20  C    2.406414   1.398511   2.420540   3.790069   4.802889
    21  H    0.974787   1.923092   3.192602   3.804234   4.911191
    22  H    5.379725   5.232109   4.079848   2.734956   2.084795
    23  H    6.391532   6.248839   5.110485   3.883060   2.676968
    24  H    5.048532   5.127828   4.369202   3.369304   2.501438
    25  H    6.529066   6.960674   6.208701   4.748737   4.164937
    26  H    7.540512   7.809921   6.924508   5.527769   4.605114
    27  H    9.285160   9.435318   8.400229   6.978682   6.245854
    28  H    4.626648   5.024476   4.398186   3.074711   3.245529
    29  H    3.384688   4.108281   3.916550   2.920703   3.063767
    30  H    3.627180   4.600833   4.594319   3.605574   4.079348
    31  H    4.881403   5.625511   5.270296   3.997048   3.895793
    32  H    4.513611   3.403448   2.147766   2.647684   2.733388
    33  H    4.553747   3.407056   3.883953   5.359173   6.160468
    34  H    2.656143   2.151346   3.404022   4.668387   5.726611
                    6          7          8          9         10
     6  C    0.000000
     7  C    1.528082   0.000000
     8  O    2.449765   1.415584   0.000000
     9  C    2.549219   1.523696   2.359593   0.000000
    10  C    3.155510   2.534712   3.715014   1.507744   0.000000
    11  O    4.292822   3.705854   4.712373   2.355028   1.337221
    12  O    3.215362   2.854361   4.199972   2.421770   1.212436
    13  C    1.546370   2.658828   3.146866   3.202388   3.921332
    14  C    2.635845   3.123754   2.961432   3.507166   4.618699
    15  O    2.312131   3.701389   4.077903   4.542572   5.156283
    16  C    4.315546   5.428657   5.686548   6.795902   7.255090
    17  C    5.691104   6.776103   6.931267   8.165583   8.639077
    18  Cl   6.852355   7.833393   8.093877   9.237983   9.545330
    19  C    6.404915   7.520428   7.507429   8.879577   9.488020
    20  C    5.970954   7.103633   6.975212   8.377756   9.115803
    21  H    5.634021   6.666741   6.328372   7.680803   8.628640
    22  H    1.099815   2.122239   3.354771   2.785735   2.819108
    23  H    2.115590   1.099424   2.066269   2.139117   2.675454
    24  H    2.589928   1.949402   0.972647   3.213491   4.446364
    25  H    2.795326   2.188632   2.728667   1.094567   2.126475
    26  H    3.476221   2.144180   2.492621   1.096731   2.109447
    27  H    4.887456   4.424890   5.543009   3.211680   1.898425
    28  H    2.198081   3.237886   3.953461   3.350304   3.743973
    29  H    2.870177   3.214162   2.653681   3.931956   5.184324
    30  H    3.537645   4.187157   4.038359   4.448304   5.452736
    31  H    2.978138   2.977695   2.748894   2.943322   4.164722
    32  H    4.014543   5.040360   5.485601   6.396919   6.697334
    33  H    7.485318   8.582862   8.538836   9.956288  10.557384
    34  H    6.817604   7.924862   7.690298   9.148968   9.957985
                   11         12         13         14         15
    11  O    0.000000
    12  O    2.240570   0.000000
    13  C    4.739548   4.255312   0.000000
    14  C    5.268890   5.236287   1.520920   0.000000
    15  O    6.056362   5.250391   1.457237   2.393510   0.000000
    16  C    8.466305   6.845078   4.675068   5.511544   3.569288
    17  C    9.851485   8.202692   5.955976   6.685066   4.741569
    18  Cl  10.800384   8.926886   7.362372   8.219907   6.241719
    19  C   10.647741   9.181484   6.378154   6.880656   5.056739
    20  C   10.196488   8.978650   5.658419   5.948132   4.326408
    21  H    9.512045   8.813516   4.792137   4.546658   3.703531
    22  H    3.958860   2.559345   2.166468   3.508022   2.780610
    23  H    3.963612   2.600979   3.537403   4.168811   4.373878
    24  H    5.546050   4.737004   3.358636   3.241857   3.957533
    25  H    2.518378   3.171096   2.872275   2.916852   4.319892
    26  H    2.660938   3.037071   4.154767   4.189796   5.486102
    27  H    0.980647   2.317246   5.398154   6.085845   6.621966
    28  H    4.337656   4.109909   1.092922   2.169307   2.058017
    29  H    5.974117   5.726084   2.162710   1.092002   2.635747
    30  H    5.959186   6.085331   2.137718   1.092922   2.620053
    31  H    4.644214   4.990351   2.175585   1.091595   3.364380
    32  H    7.947431   6.148477   4.692045   5.703807   3.814585
    33  H   11.724253  10.221894   7.456108   7.926386   6.119382
    34  H   10.988531   9.898700   6.338298   6.441599   5.025828
                   16         17         18         19         20
    16  C    0.000000
    17  C    1.386566   0.000000
    18  Cl   2.715198   1.748682   0.000000
    19  C    2.416409   1.392325   2.721037   0.000000
    20  C    2.784581   2.401601   4.011504   1.389358   0.000000
    21  H    4.343814   4.584878   6.310573   3.830519   2.449866
    22  H    4.535598   5.913979   6.904382   6.761253   6.467844
    23  H    5.429001   6.751233   7.588963   7.653766   7.429978
    24  H    5.011474   6.185502   7.326761   6.754435   6.288588
    25  H    7.064492   8.418684   9.636635   8.994556   8.343125
    26  H    7.572434   8.917582   9.953000   9.628475   9.128775
    27  H    8.878847  10.252537  11.096554  11.116766  10.743825
    28  H    5.386418   6.655077   8.010748   7.088696   6.377862
    29  H    5.138314   6.234725   7.784236   6.371018   5.435068
    30  H    5.919063   6.986401   8.607186   7.002403   5.931291
    31  H    6.426121   7.645953   9.121864   7.906219   7.003145
    32  H    1.086044   2.155808   2.867515   3.404146   3.870599
    33  H    3.399802   2.155535   2.865541   1.086125   2.151933
    34  H    3.872260   3.389750   4.871375   2.150484   1.087733
                   21         22         23         24         25
    21  H    0.000000
    22  H    6.346611   0.000000
    23  H    7.322001   2.353530   0.000000
    24  H    5.850192   3.546485   2.319229   0.000000
    25  H    7.356580   3.135688   3.069564   3.611467   0.000000
    26  H    8.388736   3.793470   2.527736   3.404809   1.752297
    27  H   10.188857   4.359156   4.524165   6.323837   3.449566
    28  H    5.464819   2.345230   4.080310   4.314208   2.858333
    29  H    4.081279   3.904100   4.161450   2.662767   3.553468
    30  H    4.204986   4.287694   5.227432   4.274851   3.711556
    31  H    5.574178   3.790183   4.075741   3.318152   2.181902
    32  H    5.296284   4.051713   4.855093   4.860092   6.805114
    33  H    4.544234   7.823317   8.683612   7.756689  10.078191
    34  H    2.273433   7.371168   8.330414   7.021187   9.024944
                   26         27         28         29         30
    26  H    0.000000
    27  H    3.529946   0.000000
    28  H    4.378415   4.905163   0.000000
    29  H    4.466183   6.814399   3.073914   0.000000
    30  H    5.143848   6.743168   2.458225   1.777301   0.000000
    31  H    3.464878   5.536507   2.560785   1.766695   1.777459
    32  H    7.161932   8.284876   5.345755   5.412610   6.251498
    33  H   10.691843  12.180348   8.152141   7.391547   8.006782
    34  H    9.879412  11.571787   7.031252   5.908332   6.277646
                   31         32         33         34
    31  H    0.000000
    32  H    6.508811   0.000000
    33  H    8.957092   4.301376   0.000000
    34  H    7.497654   4.958265   2.480515   0.000000
 Stoichiometry    C13H14ClNO5
 Framework group  C1[X(C13H14ClNO5)]
 Deg. of freedom    96
 Full point group                 C1      NOp   1
 Largest Abelian subgroup         C1      NOp   1
 Largest concise Abelian subgroup C1      NOp   1
                         Standard orientation:                         
 ---------------------------------------------------------------------
 Center     Atomic      Atomic             Coordinates (Angstroms)
 Number     Number       Type             X           Y           Z
 ---------------------------------------------------------------------
      1          8           0        1.969880    2.713487   -0.159788
      2          6           0        2.638893    1.538841   -0.142254
      3          6           0        1.898026    0.345461   -0.156145
      4          6           0        0.423802    0.338355   -0.227435
      5          7           0       -0.337521   -0.442319    0.435307
      6          6           0       -1.698486   -0.188889   -0.071195
      7          6           0       -2.728522   -0.387157    1.039999
      8          8           0       -2.496107    0.455098    2.153761
      9          6           0       -4.160546   -0.130528    0.587119
     10          6           0       -4.682405   -1.170184   -0.372084
     11          8           0       -5.866528   -0.817765   -0.883761
     12          8           0       -4.129153   -2.212931   -0.648835
     13          6           0       -1.573883    1.187794   -0.764359
     14          6           0       -1.834281    2.440271    0.058253
     15          8           0       -0.156945    1.190063   -1.104679
     16          6           0        2.560948   -0.882519   -0.076441
     17          6           0        3.945243   -0.918761   -0.005864
     18         17           0        4.764300   -2.461264    0.082007
     19          6           0        4.690560    0.257277   -0.008222
     20          6           0        4.034419    1.480267   -0.072183
     21          1           0        2.593218    3.461067   -0.107037
     22          1           0       -1.910218   -0.951237   -0.835125
     23          1           0       -2.648799   -1.440318    1.345334
     24          1           0       -1.591978    0.289648    2.471911
     25          1           0       -4.282905    0.856930    0.131014
     26          1           0       -4.815824   -0.144639    1.466455
     27          1           0       -6.182544   -1.530791   -1.478232
     28          1           0       -2.124339    1.214884   -1.708151
     29          1           0       -1.214086    2.446646    0.957022
     30          1           0       -1.585942    3.314573   -0.548708
     31          1           0       -2.878602    2.509904    0.368296
     32          1           0        1.978849   -1.799387   -0.078700
     33          1           0        5.774763    0.219945    0.044469
     34          1           0        4.606165    2.405515   -0.058541
 ---------------------------------------------------------------------
 Rotational constants (GHZ):      0.5982284      0.1390159      0.1215263
 Standard basis: 6-311+G(2d,p) (5D, 7F)
 There are   632 symmetry adapted basis functions of A   symmetry.
 Integral buffers will be    131072 words long.
 Raffenetti 2 integral format.
 Two-electron integral symmetry is turned on.
   632 basis functions,   969 primitive gaussians,   672 cartesian basis functions
    78 alpha electrons       78 beta electrons
       nuclear repulsion energy      1672.4579567627 Hartrees.
 NAtoms=   34 NActive=   34 NUniq=   34 SFac= 1.00D+00 NAtFMM=   50 NAOKFM=F Big=F
 Using the following non-standard input for PCM:
 radii=bondi
 --- end of non-standard input.
 ------------------------------------------------------------------------------
 Polarizable Continuum Model (PCM)
 =================================
 Model                : PCM.
 Atomic radii         : Bondi.
 Polarization charges : Total charges.
 Charge compensation  : None.
 Solution method      : Matrix inversion.
 Cavity type          : Scaled VdW (van der Waals Surface) (Alpha=1.100).
 Cavity algorithm     : GePol (No added spheres)
                        Default sphere list used, NSphG=   34.
                        Lebedev-Laikov grids with approx.  5.0 points / Ang**2.
                        Smoothing algorithm: Karplus/York (Gamma=1.0000).
                        Polarization charges: spherical gaussians, with
                                              point-specific exponents (IZeta= 3).
                        Self-potential: point-specific (ISelfS= 7).
                        Self-field    : sphere-specific E.n sum rule (ISelfD= 2).
 Solvent              : Methanol, Eps=  32.613000 Eps(inf)=   1.765709
 ------------------------------------------------------------------------------
 One-electron integrals computed using PRISM.
 NBasis=   632 RedAO= T  NBF=   632
 NBsUse=   630 1.00D-06 NBFU=   630
 Initial guess read from the checkpoint file:  1b-conf-10.chk
 B after Tr=     0.000000    0.000000    0.000000
         Rot=    1.000000    0.000000    0.000000    0.000000 Ang=   0.00 deg.
 Initial guess orbital symmetries:
       Occupied  (A) (A) (A) (A) (A) (A) (A) (A) (A) (A) (A) (A)
                 (A) (A) (A) (A) (A) (A) (A) (A) (A) (A) (A) (A)
                 (A) (A) (A) (A) (A) (A) (A) (A) (A) (A) (A) (A)
                 (A) (A) (A) (A) (A) (A) (A) (A) (A) (A) (A) (A)
                 (A) (A) (A) (A) (A) (A) (A) (A) (A) (A) (A) (A)
                 (A) (A) (A) (A) (A) (A) (A) (A) (A) (A) (A) (A)
                 (A) (A) (A) (A) (A) (A)
       Virtual   (A) (A) (A) (A) (A) (A) (A) (A) (A) (A) (A) (A)
                 (A) (A) (A) (A) (A) (A) (A) (A) (A) (A) (A) (A)
                 (A) (A) (A) (A) (A) (A) (A) (A) (A) (A) (A) (A)
                 (A) (A) (A) (A) (A) (A) (A) (A) (A) (A) (A) (A)
                 (A) (A) (A) (A) (A) (A) (A) (A) (A) (A) (A) (A)
                 (A) (A) (A) (A) (A) (A) (A) (A) (A) (A) (A) (A)
                 (A) (A) (A) (A) (A) (A) (A) (A) (A) (A) (A) (A)
                 (A) (A) (A) (A) (A) (A) (A) (A) (A) (A) (A) (A)
                 (A) (A) (A) (A) (A) (A) (A) (A) (A) (A) (A) (A)
                 (A) (A) (A) (A) (A) (A) (A) (A) (A) (A) (A) (A)
                 (A) (A) (A) (A) (A) (A) (A) (A) (A) (A) (A) (A)
                 (A) (A) (A) (A) (A) (A) (A) (A) (A) (A) (A) (A)
                 (A) (A) (A) (A) (A) (A) (A) (A) (A) (A) (A) (A)
                 (A) (A) (A) (A) (A) (A) (A) (A) (A) (A) (A) (A)
                 (A) (A) (A) (A) (A) (A) (A) (A) (A) (A) (A) (A)
                 (A) (A) (A) (A) (A) (A) (A) (A) (A) (A) (A) (A)
                 (A) (A) (A) (A) (A) (A) (A) (A) (A) (A) (A) (A)
                 (A) (A) (A) (A) (A) (A) (A) (A) (A) (A) (A) (A)
                 (A) (A) (A) (A) (A) (A) (A) (A) (A) (A) (A) (A)
                 (A) (A) (A) (A) (A) (A) (A) (A) (A) (A) (A) (A)
                 (A) (A) (A) (A) (A) (A) (A) (A) (A) (A) (A) (A)
                 (A) (A) (A) (A) (A) (A) (A) (A) (A) (A) (A) (A)
                 (A) (A) (A) (A) (A) (A) (A) (A) (A) (A) (A) (A)
                 (A) (A) (A) (A) (A) (A) (A) (A) (A) (A) (A) (A)
                 (A) (A) (A) (A) (A) (A) (A) (A) (A) (A) (A) (A)
                 (A) (A) (A) (A) (A) (A) (A) (A) (A) (A) (A) (A)
                 (A) (A) (A) (A) (A) (A) (A) (A) (A) (A) (A) (A)
                 (A) (A) (A) (A) (A) (A) (A) (A) (A) (A) (A) (A)
                 (A) (A) (A) (A) (A) (A) (A) (A) (A) (A) (A) (A)
                 (A) (A) (A) (A) (A) (A) (A) (A) (A) (A) (A) (A)
                 (A) (A) (A) (A) (A) (A) (A) (A) (A) (A) (A) (A)
                 (A) (A) (A) (A) (A) (A) (A) (A) (A) (A) (A) (A)
                 (A) (A) (A) (A) (A) (A) (A) (A) (A) (A) (A) (A)
                 (A) (A) (A) (A) (A) (A) (A) (A) (A) (A) (A) (A)
                 (A) (A) (A) (A) (A) (A) (A) (A) (A) (A) (A) (A)
                 (A) (A) (A) (A) (A) (A) (A) (A) (A) (A) (A) (A)
                 (A) (A) (A) (A) (A) (A) (A) (A) (A) (A) (A) (A)
                 (A) (A) (A) (A) (A) (A) (A) (A) (A) (A) (A) (A)
                 (A) (A) (A) (A) (A) (A) (A) (A) (A) (A) (A) (A)
                 (A) (A) (A) (A) (A) (A) (A) (A) (A) (A) (A) (A)
                 (A) (A) (A) (A) (A) (A) (A) (A) (A) (A) (A) (A)
                 (A) (A) (A) (A) (A) (A) (A) (A) (A) (A) (A) (A)
                 (A) (A) (A) (A) (A) (A) (A) (A) (A) (A) (A) (A)
                 (A) (A) (A) (A) (A) (A) (A) (A) (A) (A) (A) (A)
                 (A) (A) (A) (A) (A) (A) (A) (A) (A) (A) (A) (A)
                 (A) (A) (A) (A) (A) (A) (A) (A) (A) (A) (A) (A)
 Requested convergence on RMS density matrix=1.00D-08 within 128 cycles.
 Requested convergence on MAX density matrix=1.00D-06.
 Requested convergence on             energy=1.00D-06.
 No special actions if energy rises.
 Error on total polarization charges =  0.05060
 SCF Done:  E(RB3LYP) =  -1395.24121653     A.U. after   13 cycles
             Convg  =    0.4660D-08             -V/T =  2.0034
 Range of M.O.s used for correlation:     1   630
 NBasis=   632 NAE=    78 NBE=    78 NFC=     0 NFV=     0
 NROrb=    630 NOA=    78 NOB=    78 NVA=   552 NVB=   552

 **** Warning!!: The largest alpha MO coefficient is  0.10673574D+03

 NEqPCM:  Using equilibrium solvation (IEInf=0, Eps=  32.6130, EpsInf=   1.7657)
          Differentiating once with respect to magnetic field using GIAOs.
          Electric field/nuclear overlap derivatives assumed to be zero.
 FoFCou: FMM=F IPFlag=           0 FMFlag=    10101102 FMFlg1=           0
         NFxFlg=    40000000 DoJE=F BraDBF=F KetDBF=T FulRan=T
         Omega=  0.000000  0.000000  1.000000  0.000000  0.000000 ICntrl=    6100 IOpCl=  0
         NMat0=    1 NMatS0=    1 NMatT0=    0 NMatD0=    1 NMtDS0=    0 NMtDT0=    0
         I1Cent=           7 NGrid=        2512.
 Symmetry not used in FoFCou.
          There are     3 degrees of freedom in the 1st order CPHF.  IDoFFX=0.
      3 vectors produced by pass  0 Test12= 1.44D-12 3.33D-08 XBig12= 5.54D+02 8.91D+00.
 AX will form     3 AO Fock derivatives at one time.
      3 vectors produced by pass  1 Test12= 1.44D-12 3.33D-08 XBig12= 1.17D+00 2.97D-01.
      3 vectors produced by pass  2 Test12= 1.44D-12 3.33D-08 XBig12= 4.72D-03 2.83D-02.
      3 vectors produced by pass  3 Test12= 1.44D-12 3.33D-08 XBig12= 1.44D-05 1.29D-03.
      3 vectors produced by pass  4 Test12= 1.44D-12 3.33D-08 XBig12= 3.46D-08 7.39D-05.
      3 vectors produced by pass  5 Test12= 1.44D-12 3.33D-08 XBig12= 1.53D-10 4.29D-06.
      3 vectors produced by pass  6 Test12= 1.44D-12 3.33D-08 XBig12= 3.73D-13 1.46D-07.
 Inverted reduced A of dimension    21 with in-core refinement.
 Calculating GIAO nuclear magnetic shielding tensors.
 SCF GIAO Magnetic shielding tensor (ppm):
  1  O    Isotropic =   203.8533   Anisotropy =    54.0230
   XX=   169.5980   YX=   -29.0548   ZX=    -6.0768
   XY=   -39.5091   YY=   204.0939   ZY=     1.7679
   XZ=     0.4522   YZ=   -16.5065   ZZ=   237.8681
   Eigenvalues:   148.0319   223.6594   239.8687
  2  C    Isotropic =    20.3960   Anisotropy =   143.3123
   XX=    -2.7100   YX=    32.2775   ZX=    -5.7966
   XY=    14.5500   YY=   -51.7310   ZY=    -2.0616
   XZ=    -5.5255   YZ=    -0.7160   ZZ=   115.6289
   Eigenvalues:   -61.1207     6.3711   115.9375
  3  C    Isotropic =    60.0427   Anisotropy =   137.3767
   XX=    -8.5207   YX=    -5.3312   ZX=    -7.5873
   XY=     6.6760   YY=    37.2163   ZY=     3.9716
   XZ=    -3.5731   YZ=    -4.1388   ZZ=   151.4327
   Eigenvalues:    -8.7249    37.2259   151.6272
  4  C    Isotropic =     7.8831   Anisotropy =    86.6737
   XX=   -28.1542   YX=    42.9592   ZX=   -48.4519
   XY=    41.1495   YY=    28.7368   ZY=    41.4893
   XZ=   -55.5105   YZ=    36.6995   ZZ=    23.0667
   Eigenvalues:   -87.9180    45.9017    65.6656
  5  N    Isotropic =     8.2515   Anisotropy =   235.1973
   XX=  -128.3678   YX=    14.0296   ZX=   -66.6510
   XY=    12.3615   YY=    81.5364   ZY=    99.5791
   XZ=    -5.2516   YZ=    75.5235   ZZ=    71.5860
   Eigenvalues:  -138.8206    -1.4746   165.0497
  6  C    Isotropic =   108.7624   Anisotropy =    45.3493
   XX=   135.7936   YX=    -7.6246   ZX=     2.4474
   XY=    -2.2093   YY=    97.8088   ZY=   -24.4908
   XZ=    13.5327   YZ=   -10.5329   ZZ=    92.6850
   Eigenvalues:    77.4060   109.8861   138.9953
  7  C    Isotropic =   109.9146   Anisotropy =    47.1820
   XX=    95.9139   YX=    13.0412   ZX=     6.3397
   XY=     4.1239   YY=   112.1165   ZY=    21.6381
   XZ=     0.2247   YZ=    23.4511   ZZ=   121.7136
   Eigenvalues:    89.6391    98.7356   141.3693
  8  O    Isotropic =   284.9572   Anisotropy =    64.9583
   XX=   318.7054   YX=     8.5741   ZX=    32.5341
   XY=     2.6851   YY=   263.9239   ZY=     8.9452
   XZ=    12.0896   YZ=    -4.2465   ZZ=   272.2424
   Eigenvalues:   263.2168   263.3921   328.2627
  9  C    Isotropic =   144.5734   Anisotropy =    44.3769
   XX=   157.9662   YX=     6.7043   ZX=    14.4887
   XY=    12.2407   YY=   133.7622   ZY=    12.6421
   XZ=    19.0464   YZ=    13.1672   ZZ=   141.9917
   Eigenvalues:   124.0863   135.4758   174.1579
 10  C    Isotropic =     0.6344   Anisotropy =   109.1030
   XX=   -47.2146   YX=    -8.0662   ZX=   -79.0849
   XY=    10.9892   YY=    34.1260   ZY=   -17.1734
   XZ=   -66.2885   YZ=   -28.8668   ZZ=    14.9918
   Eigenvalues:   -96.2004    24.7339    73.3697
 11  O    Isotropic =   116.6855   Anisotropy =   196.0899
   XX=   226.6387   YX=    50.5451   ZX=    76.1484
   XY=   -40.4581   YY=     2.6744   ZY=  -107.1539
   XZ=    16.9404   YZ=   -63.1007   ZZ=   120.7435
   Eigenvalues:   -44.4575   147.1019   247.4121
 12  O    Isotropic =   -62.6492   Anisotropy =   506.8321
   XX=  -161.8711   YX=   171.8535   ZX=  -166.5222
   XY=   132.7014   YY=  -104.9802   ZY=  -146.0517
   XZ=  -179.9253   YZ=  -142.0366   ZZ=    78.9038
   Eigenvalues:  -296.0480  -167.1384   275.2389
 13  C    Isotropic =    97.6429   Anisotropy =    78.2332
   XX=   142.9482   YX=     6.5652   ZX=   -16.5974
   XY=    -6.6215   YY=    86.4096   ZY=   -10.7392
   XZ=   -31.9982   YZ=     7.2444   ZZ=    63.5709
   Eigenvalues:    56.6280    86.5023   149.7984
 14  C    Isotropic =   164.6507   Anisotropy =    16.4397
   XX=   168.5500   YX=     6.2831   ZX=    -6.5803
   XY=    -3.1561   YY=   168.1968   ZY=     9.7092
   XZ=   -11.7667   YZ=     7.8950   ZZ=   157.2052
   Eigenvalues:   148.4193   169.9222   175.6105
 15  O    Isotropic =   107.1111   Anisotropy =   130.4294
   XX=    34.5636   YX=   -38.1668   ZX=    38.5576
   XY=   -79.6922   YY=   154.4169   ZY=   -12.7510
   XZ=    26.0167   YZ=   -26.2005   ZZ=   132.3527
   Eigenvalues:     6.2508   121.0184   194.0640
 16  C    Isotropic =    45.2824   Anisotropy =   150.2057
   XX=    21.2611   YX=   -38.3579   ZX=    -7.9401
   XY=   -34.2882   YY=   -30.8097   ZY=     2.0551
   XZ=     4.8056   YZ=    -1.3373   ZZ=   145.3957
   Eigenvalues:   -49.4652    39.8928   145.4195
 17  C    Isotropic =    46.7801   Anisotropy =   102.5428
   XX=    46.2962   YX=    47.4281   ZX=    -4.8644
   XY=    46.1844   YY=   -20.7292   ZY=     6.4207
   XZ=    -4.4619   YZ=     4.6117   ZZ=   114.7732
   Eigenvalues:   -45.0931    70.2913   115.1420
 18  Cl   Isotropic =   709.6112   Anisotropy =   492.3241
   XX=   639.1303   YX=  -209.9068   ZX=    10.8267
   XY=  -208.6613   YY=   926.2835   ZY=   -21.2602
   XZ=    10.6064   YZ=   -24.0395   ZZ=   563.4197
   Eigenvalues:   528.8731   562.1332  1037.8272
 19  C    Isotropic =    43.8110   Anisotropy =   161.6645
   XX=   -53.3434   YX=     2.7734   ZX=    -9.9692
   XY=     3.1322   YY=    33.9408   ZY=     3.8846
   XZ=   -11.7967   YZ=     5.4686   ZZ=   150.8357
   Eigenvalues:   -54.0382    33.8839   151.5874
 20  C    Isotropic =    60.5470   Anisotropy =   137.9835
   XX=    32.8720   YX=   -31.2233   ZX=    -5.4042
   XY=   -33.9957   YY=    -3.4368   ZY=     1.6755
   XZ=    -6.1136   YZ=     0.7747   ZZ=   152.2058
   Eigenvalues:   -22.6247    51.7296   152.5360
 21  H    Isotropic =    26.1731   Anisotropy =    14.2824
   XX=    28.2395   YX=     3.9223   ZX=     0.6237
   XY=     5.9938   YY=    32.3556   ZY=     0.3812
   XZ=     0.4569   YZ=     0.6199   ZZ=    17.9242
   Eigenvalues:    17.8911    24.9335    35.6947
 22  H    Isotropic =    27.2592   Anisotropy =     6.6765
   XX=    29.0455   YX=     1.5517   ZX=     0.7076
   XY=     3.3189   YY=    27.4773   ZY=     2.4241
   XZ=     1.1106   YZ=     2.9384   ZZ=    25.2548
   Eigenvalues:    23.3857    26.6816    31.7102
 23  H    Isotropic =    26.8512   Anisotropy =     6.2508
   XX=    24.4377   YX=     1.6402   ZX=     0.1738
   XY=     1.1615   YY=    30.7059   ZY=    -0.6721
   XZ=     1.0974   YZ=     0.9639   ZZ=    25.4099
   Eigenvalues:    23.9050    25.6302    31.0183
 24  H    Isotropic =    29.7102   Anisotropy =    15.9188
   XX=    37.6038   YX=    -2.9081   ZX=     4.9415
   XY=    -1.7682   YY=    21.3654   ZY=     1.0810
   XZ=     5.2534   YZ=     1.2857   ZZ=    30.1613
   Eigenvalues:    20.6017    28.2061    40.3227
 25  H    Isotropic =    28.8234   Anisotropy =     4.6450
   XX=    31.4588   YX=     1.0245   ZX=     1.7180
   XY=     0.4177   YY=    29.9478   ZY=    -1.9136
   XZ=     1.6574   YZ=    -1.8440   ZZ=    25.0637
   Eigenvalues:    23.9768    30.5734    31.9201
 26  H    Isotropic =    28.7820   Anisotropy =     6.7234
   XX=    32.0412   YX=     0.9894   ZX=    -2.3232
   XY=     0.7933   YY=    24.9182   ZY=     0.5697
   XZ=    -1.9782   YZ=     0.8473   ZZ=    29.3866
   Eigenvalues:    24.5884    28.4934    33.2643
 27  H    Isotropic =    24.8416   Anisotropy =    12.2479
   XX=    26.1387   YX=     6.2400   ZX=     5.7922
   XY=     2.1804   YY=    22.9427   ZY=     1.9155
   XZ=     3.4924   YZ=     3.9027   ZZ=    25.4434
   Eigenvalues:    20.0097    21.5082    33.0068
 28  H    Isotropic =    26.7212   Anisotropy =     3.8477
   XX=    27.5579   YX=     0.1194   ZX=     2.3927
   XY=     0.4807   YY=    24.9829   ZY=    -0.3133
   XZ=     0.9981   YZ=    -0.1837   ZZ=    27.6227
   Eigenvalues:    24.8398    26.0374    29.2863
 29  H    Isotropic =    30.1608   Anisotropy =     3.8712
   XX=    29.0385   YX=     0.6383   ZX=     1.6593
   XY=     1.1330   YY=    30.9267   ZY=     1.5263
   XZ=     0.9309   YZ=     1.2246   ZZ=    30.5172
   Eigenvalues:    28.2834    29.4575    32.7417
 30  H    Isotropic =    30.6027   Anisotropy =     9.1224
   XX=    28.1977   YX=     0.5385   ZX=    -1.3069
   XY=     0.2253   YY=    35.6449   ZY=    -3.6109
   XZ=    -0.7399   YZ=    -2.2253   ZZ=    27.9654
   Eigenvalues:    26.5369    28.5869    36.6843
 31  H    Isotropic =    30.5512   Anisotropy =     7.7690
   XX=    34.1343   YX=    -0.7863   ZX=    -2.9110
   XY=    -2.1834   YY=    31.2440   ZY=    -0.3409
   XZ=    -3.6421   YZ=     0.0676   ZZ=    26.2752
   Eigenvalues:    25.0219    30.9012    35.7305
 32  H    Isotropic =    23.7969   Anisotropy =    11.4458
   XX=    29.2486   YX=    -3.7063   ZX=     0.2721
   XY=    -4.7962   YY=    23.1291   ZY=    -0.4966
   XZ=    -0.3830   YZ=     0.6992   ZZ=    19.0129
   Eigenvalues:    19.0100    20.9532    31.4274
 33  H    Isotropic =    24.1048   Anisotropy =     7.1036
   XX=    23.3650   YX=     0.1598   ZX=     0.1138
   XY=     0.9689   YY=    28.7766   ZY=    -0.2619
   XZ=    -0.0750   YZ=    -0.1926   ZZ=    20.1728
   Eigenvalues:    20.1665    23.3074    28.8406
 34  H    Isotropic =    24.7059   Anisotropy =     5.5782
   XX=    27.6130   YX=    -1.1257   ZX=     0.2771
   XY=    -1.9596   YY=    25.4047   ZY=    -0.3238
   XZ=     0.2962   YZ=    -0.1831   ZZ=    21.1000
   Eigenvalues:    21.0787    24.6143    28.4247
 End of Minotr Frequency-dependent properties file   721 does not exist.
 End of Minotr Frequency-dependent properties file   722 does not exist.

 **********************************************************************

            Population analysis using the SCF density.

 **********************************************************************

 Orbital symmetries:
       Occupied  (A) (A) (A) (A) (A) (A) (A) (A) (A) (A) (A) (A)
                 (A) (A) (A) (A) (A) (A) (A) (A) (A) (A) (A) (A)
                 (A) (A) (A) (A) (A) (A) (A) (A) (A) (A) (A) (A)
                 (A) (A) (A) (A) (A) (A) (A) (A) (A) (A) (A) (A)
                 (A) (A) (A) (A) (A) (A) (A) (A) (A) (A) (A) (A)
                 (A) (A) (A) (A) (A) (A) (A) (A) (A) (A) (A) (A)
                 (A) (A) (A) (A) (A) (A)
       Virtual   (A) (A) (A) (A) (A) (A) (A) (A) (A) (A) (A) (A)
                 (A) (A) (A) (A) (A) (A) (A) (A) (A) (A) (A) (A)
                 (A) (A) (A) (A) (A) (A) (A) (A) (A) (A) (A) (A)
                 (A) (A) (A) (A) (A) (A) (A) (A) (A) (A) (A) (A)
                 (A) (A) (A) (A) (A) (A) (A) (A) (A) (A) (A) (A)
                 (A) (A) (A) (A) (A) (A) (A) (A) (A) (A) (A) (A)
                 (A) (A) (A) (A) (A) (A) (A) (A) (A) (A) (A) (A)
                 (A) (A) (A) (A) (A) (A) (A) (A) (A) (A) (A) (A)
                 (A) (A) (A) (A) (A) (A) (A) (A) (A) (A) (A) (A)
                 (A) (A) (A) (A) (A) (A) (A) (A) (A) (A) (A) (A)
                 (A) (A) (A) (A) (A) (A) (A) (A) (A) (A) (A) (A)
                 (A) (A) (A) (A) (A) (A) (A) (A) (A) (A) (A) (A)
                 (A) (A) (A) (A) (A) (A) (A) (A) (A) (A) (A) (A)
                 (A) (A) (A) (A) (A) (A) (A) (A) (A) (A) (A) (A)
                 (A) (A) (A) (A) (A) (A) (A) (A) (A) (A) (A) (A)
                 (A) (A) (A) (A) (A) (A) (A) (A) (A) (A) (A) (A)
                 (A) (A) (A) (A) (A) (A) (A) (A) (A) (A) (A) (A)
                 (A) (A) (A) (A) (A) (A) (A) (A) (A) (A) (A) (A)
                 (A) (A) (A) (A) (A) (A) (A) (A) (A) (A) (A) (A)
                 (A) (A) (A) (A) (A) (A) (A) (A) (A) (A) (A) (A)
                 (A) (A) (A) (A) (A) (A) (A) (A) (A) (A) (A) (A)
                 (A) (A) (A) (A) (A) (A) (A) (A) (A) (A) (A) (A)
                 (A) (A) (A) (A) (A) (A) (A) (A) (A) (A) (A) (A)
                 (A) (A) (A) (A) (A) (A) (A) (A) (A) (A) (A) (A)
                 (A) (A) (A) (A) (A) (A) (A) (A) (A) (A) (A) (A)
                 (A) (A) (A) (A) (A) (A) (A) (A) (A) (A) (A) (A)
                 (A) (A) (A) (A) (A) (A) (A) (A) (A) (A) (A) (A)
                 (A) (A) (A) (A) (A) (A) (A) (A) (A) (A) (A) (A)
                 (A) (A) (A) (A) (A) (A) (A) (A) (A) (A) (A) (A)
                 (A) (A) (A) (A) (A) (A) (A) (A) (A) (A) (A) (A)
                 (A) (A) (A) (A) (A) (A) (A) (A) (A) (A) (A) (A)
                 (A) (A) (A) (A) (A) (A) (A) (A) (A) (A) (A) (A)
                 (A) (A) (A) (A) (A) (A) (A) (A) (A) (A) (A) (A)
                 (A) (A) (A) (A) (A) (A) (A) (A) (A) (A) (A) (A)
                 (A) (A) (A) (A) (A) (A) (A) (A) (A) (A) (A) (A)
                 (A) (A) (A) (A) (A) (A) (A) (A) (A) (A) (A) (A)
                 (A) (A) (A) (A) (A) (A) (A) (A) (A) (A) (A) (A)
                 (A) (A) (A) (A) (A) (A) (A) (A) (A) (A) (A) (A)
                 (A) (A) (A) (A) (A) (A) (A) (A) (A) (A) (A) (A)
                 (A) (A) (A) (A) (A) (A) (A) (A) (A) (A) (A) (A)
                 (A) (A) (A) (A) (A) (A) (A) (A) (A) (A) (A) (A)
                 (A) (A) (A) (A) (A) (A) (A) (A) (A) (A) (A) (A)
                 (A) (A) (A) (A) (A) (A) (A) (A) (A) (A) (A) (A)
                 (A) (A) (A) (A) (A) (A) (A) (A) (A) (A) (A) (A)
                 (A) (A) (A) (A) (A) (A) (A) (A) (A) (A) (A) (A)
                 (A) (A) (A) (A) (A) (A) (A) (A) (A) (A) (A) (A)
 The electronic state is 1-A.
 Alpha  occ. eigenvalues -- -101.55984 -19.18200 -19.16837 -19.16616 -19.13126
 Alpha  occ. eigenvalues --  -19.12840 -14.30493 -10.32112 -10.27602 -10.25758
 Alpha  occ. eigenvalues --  -10.23831 -10.23420 -10.23214 -10.20591 -10.20397
 Alpha  occ. eigenvalues --  -10.19770 -10.19681 -10.18938 -10.18882 -10.15865
 Alpha  occ. eigenvalues --   -9.47434  -7.23870  -7.22929  -7.22902  -1.12441
 Alpha  occ. eigenvalues --   -1.10376  -1.08049  -1.03760  -1.03425  -0.91788
 Alpha  occ. eigenvalues --   -0.90135  -0.85068  -0.81486  -0.78992  -0.76669
 Alpha  occ. eigenvalues --   -0.74148  -0.71456  -0.67500  -0.64828  -0.62991
 Alpha  occ. eigenvalues --   -0.62109  -0.58492  -0.57179  -0.56212  -0.54227
 Alpha  occ. eigenvalues --   -0.51723  -0.50784  -0.50191  -0.50062  -0.49440
 Alpha  occ. eigenvalues --   -0.47751  -0.47067  -0.46379  -0.45234  -0.44461
 Alpha  occ. eigenvalues --   -0.43619  -0.42868  -0.42082  -0.40996  -0.40661
 Alpha  occ. eigenvalues --   -0.39837  -0.39191  -0.38985  -0.38724  -0.38002
 Alpha  occ. eigenvalues --   -0.36681  -0.36189  -0.35802  -0.34500  -0.34038
 Alpha  occ. eigenvalues --   -0.32598  -0.32380  -0.30278  -0.30076  -0.28185
 Alpha  occ. eigenvalues --   -0.28090  -0.25826  -0.23669
 Alpha virt. eigenvalues --   -0.05315  -0.02262  -0.01281  -0.00165   0.00416
 Alpha virt. eigenvalues --    0.00859   0.01484   0.01794   0.02283   0.02460
 Alpha virt. eigenvalues --    0.02932   0.03866   0.04613   0.04637   0.05288
 Alpha virt. eigenvalues --    0.05481   0.05954   0.06254   0.06604   0.07359
 Alpha virt. eigenvalues --    0.07623   0.08194   0.08495   0.09193   0.09470
 Alpha virt. eigenvalues --    0.09800   0.10434   0.10969   0.11125   0.11370
 Alpha virt. eigenvalues --    0.11663   0.11979   0.12499   0.12568   0.13378
 Alpha virt. eigenvalues --    0.13627   0.13907   0.14358   0.14503   0.14925
 Alpha virt. eigenvalues --    0.15526   0.15632   0.16010   0.16299   0.16655
 Alpha virt. eigenvalues --    0.17010   0.17287   0.17420   0.17846   0.18416
 Alpha virt. eigenvalues --    0.18522   0.18752   0.19085   0.19774   0.19989
 Alpha virt. eigenvalues --    0.20216   0.20548   0.20971   0.21106   0.21300
 Alpha virt. eigenvalues --    0.21606   0.22065   0.22314   0.22668   0.22808
 Alpha virt. eigenvalues --    0.23099   0.23759   0.24148   0.24449   0.24672
 Alpha virt. eigenvalues --    0.25034   0.25589   0.25790   0.26101   0.26445
 Alpha virt. eigenvalues --    0.26708   0.27142   0.27575   0.28021   0.28632
 Alpha virt. eigenvalues --    0.28908   0.29132   0.29177   0.29924   0.29969
 Alpha virt. eigenvalues --    0.30436   0.30724   0.31211   0.31606   0.32096
 Alpha virt. eigenvalues --    0.32367   0.32735   0.33058   0.33381   0.33624
 Alpha virt. eigenvalues --    0.34412   0.35033   0.35209   0.35268   0.35532
 Alpha virt. eigenvalues --    0.36196   0.36775   0.37400   0.38030   0.38340
 Alpha virt. eigenvalues --    0.38437   0.38944   0.39748   0.40289   0.41367
 Alpha virt. eigenvalues --    0.41825   0.42317   0.43165   0.43499   0.44292
 Alpha virt. eigenvalues --    0.45101   0.45740   0.46462   0.46921   0.47253
 Alpha virt. eigenvalues --    0.48331   0.49248   0.49318   0.50316   0.51036
 Alpha virt. eigenvalues --    0.51328   0.52001   0.52197   0.52606   0.52817
 Alpha virt. eigenvalues --    0.53658   0.54585   0.55011   0.55935   0.56756
 Alpha virt. eigenvalues --    0.57685   0.57938   0.58614   0.59227   0.59584
 Alpha virt. eigenvalues --    0.59880   0.60172   0.61355   0.62007   0.62480
 Alpha virt. eigenvalues --    0.62675   0.63298   0.63740   0.64394   0.64627
 Alpha virt. eigenvalues --    0.65104   0.65413   0.66025   0.66204   0.67278
 Alpha virt. eigenvalues --    0.67602   0.67985   0.68493   0.69092   0.69866
 Alpha virt. eigenvalues --    0.70526   0.70844   0.71282   0.72097   0.72354
 Alpha virt. eigenvalues --    0.73010   0.73353   0.74147   0.74551   0.75478
 Alpha virt. eigenvalues --    0.76281   0.76983   0.77706   0.78413   0.78824
 Alpha virt. eigenvalues --    0.79952   0.80227   0.80737   0.81582   0.81887
 Alpha virt. eigenvalues --    0.82842   0.83528   0.83865   0.84701   0.85504
 Alpha virt. eigenvalues --    0.85578   0.87227   0.88071   0.88623   0.89356
 Alpha virt. eigenvalues --    0.89720   0.91096   0.91681   0.92300   0.93237
 Alpha virt. eigenvalues --    0.94342   0.96154   0.96467   0.97843   0.99218
 Alpha virt. eigenvalues --    0.99726   1.00229   1.01059   1.01708   1.02356
 Alpha virt. eigenvalues --    1.02605   1.05393   1.06334   1.06768   1.07167
 Alpha virt. eigenvalues --    1.08155   1.08841   1.09389   1.09859   1.10717
 Alpha virt. eigenvalues --    1.10889   1.11629   1.12123   1.13343   1.14115
 Alpha virt. eigenvalues --    1.14885   1.14969   1.16282   1.16519   1.17810
 Alpha virt. eigenvalues --    1.18151   1.18959   1.19182   1.20138   1.20572
 Alpha virt. eigenvalues --    1.21507   1.21840   1.22297   1.23803   1.25616
 Alpha virt. eigenvalues --    1.25861   1.26601   1.27133   1.28835   1.29549
 Alpha virt. eigenvalues --    1.30815   1.31157   1.32090   1.33104   1.33454
 Alpha virt. eigenvalues --    1.33752   1.34298   1.34598   1.35912   1.36543
 Alpha virt. eigenvalues --    1.36937   1.37199   1.38216   1.39637   1.40404
 Alpha virt. eigenvalues --    1.41921   1.42714   1.43451   1.45817   1.47571
 Alpha virt. eigenvalues --    1.48309   1.49159   1.51133   1.51415   1.52024
 Alpha virt. eigenvalues --    1.53353   1.54197   1.54680   1.56392   1.57060
 Alpha virt. eigenvalues --    1.57892   1.59019   1.60235   1.60866   1.61673
 Alpha virt. eigenvalues --    1.62926   1.63006   1.64834   1.66734   1.67735
 Alpha virt. eigenvalues --    1.69559   1.70454   1.72363   1.72879   1.73415
 Alpha virt. eigenvalues --    1.74221   1.75503   1.76091   1.77638   1.78133
 Alpha virt. eigenvalues --    1.79141   1.80382   1.82403   1.85462   1.88455
 Alpha virt. eigenvalues --    1.89016   1.89493   1.91085   1.92272   1.93016
 Alpha virt. eigenvalues --    1.94736   1.95239   1.96111   1.98172   1.98283
 Alpha virt. eigenvalues --    2.00251   2.03065   2.03898   2.06216   2.07706
 Alpha virt. eigenvalues --    2.08065   2.10940   2.11375   2.12461   2.13824
 Alpha virt. eigenvalues --    2.14272   2.16136   2.17279   2.19897   2.22222
 Alpha virt. eigenvalues --    2.22753   2.24181   2.26552   2.27057   2.27301
 Alpha virt. eigenvalues --    2.29126   2.30710   2.32594   2.33565   2.34139
 Alpha virt. eigenvalues --    2.36265   2.36514   2.37479   2.38807   2.39795
 Alpha virt. eigenvalues --    2.40876   2.41346   2.42955   2.44073   2.45087
 Alpha virt. eigenvalues --    2.46092   2.47518   2.48949   2.49303   2.50418
 Alpha virt. eigenvalues --    2.50649   2.51881   2.54125   2.54832   2.55804
 Alpha virt. eigenvalues --    2.58487   2.60563   2.61715   2.62068   2.63590
 Alpha virt. eigenvalues --    2.64422   2.65847   2.67993   2.69027   2.71477
 Alpha virt. eigenvalues --    2.73965   2.74974   2.77343   2.79019   2.80767
 Alpha virt. eigenvalues --    2.82101   2.83649   2.84582   2.85051   2.86698
 Alpha virt. eigenvalues --    2.88397   2.89547   2.89745   2.92709   2.94252
 Alpha virt. eigenvalues --    2.94610   2.97082   2.97826   2.98457   3.00205
 Alpha virt. eigenvalues --    3.02503   3.03329   3.05178   3.06112   3.07842
 Alpha virt. eigenvalues --    3.09141   3.10697   3.10978   3.14631   3.17642
 Alpha virt. eigenvalues --    3.18765   3.19304   3.23244   3.24290   3.26468
 Alpha virt. eigenvalues --    3.26786   3.28227   3.31333   3.31792   3.33495
 Alpha virt. eigenvalues --    3.34216   3.34934   3.35946   3.36106   3.37557
 Alpha virt. eigenvalues --    3.38811   3.40174   3.41034   3.42174   3.42960
 Alpha virt. eigenvalues --    3.44700   3.46978   3.47317   3.48690   3.50564
 Alpha virt. eigenvalues --    3.50955   3.51564   3.51986   3.53199   3.54232
 Alpha virt. eigenvalues --    3.54877   3.56491   3.57255   3.57905   3.58229
 Alpha virt. eigenvalues --    3.59140   3.59647   3.61456   3.62491   3.63715
 Alpha virt. eigenvalues --    3.64858   3.65193   3.65822   3.66479   3.67686
 Alpha virt. eigenvalues --    3.68026   3.68795   3.69696   3.71472   3.73071
 Alpha virt. eigenvalues --    3.73895   3.74326   3.76883   3.77673   3.78442
 Alpha virt. eigenvalues --    3.81124   3.81764   3.82914   3.84201   3.84862
 Alpha virt. eigenvalues --    3.86743   3.87850   3.89149   3.90889   3.93428
 Alpha virt. eigenvalues --    3.94710   3.95754   3.99133   4.01628   4.02977
 Alpha virt. eigenvalues --    4.07878   4.10062   4.10410   4.14077   4.15557
 Alpha virt. eigenvalues --    4.19299   4.20963   4.24759   4.26061   4.30491
 Alpha virt. eigenvalues --    4.34768   4.38467   4.39617   4.40447   4.51855
 Alpha virt. eigenvalues --    4.55615   4.58228   4.59192   4.74143   4.76531
 Alpha virt. eigenvalues --    4.83132   4.99248   5.01255   5.03728   5.07012
 Alpha virt. eigenvalues --    5.11401   5.15162   5.16220   5.20145   5.22575
 Alpha virt. eigenvalues --    5.25492   5.26958   5.42869   5.45182   5.47744
 Alpha virt. eigenvalues --    5.54143   5.59207   5.61017   5.78543   5.83640
 Alpha virt. eigenvalues --    5.88587   5.98965   6.11763   6.76024   6.82044
 Alpha virt. eigenvalues --    6.85013   6.87056   6.90773   6.95760   6.96020
 Alpha virt. eigenvalues --    6.99791   7.01429   7.03669   7.04643   7.08203
 Alpha virt. eigenvalues --    7.08728   7.09471   7.14143   7.15607   7.20597
 Alpha virt. eigenvalues --    7.21945   7.29561   7.31373   7.32492   7.34744
 Alpha virt. eigenvalues --    7.35114   7.38972   7.51923   9.89607  23.65055
 Alpha virt. eigenvalues --   23.90235  23.95186  23.96727  23.99516  24.00560
 Alpha virt. eigenvalues --   24.03423  24.05664  24.07279  24.07616  24.10712
 Alpha virt. eigenvalues --   24.16244  24.32295  25.87493  26.27633  27.40545
 Alpha virt. eigenvalues --   35.73619  49.92421  49.99696  50.01036  50.01859
 Alpha virt. eigenvalues --   50.05131 215.89761
          Condensed to atoms (all electrons):
              1          2          3          4          5          6
     1  O    8.239361   0.209376  -0.136886  -0.039219   0.002448  -0.035474
     2  C    0.209376  10.089520   0.229461  -0.308516  -0.063502  -0.691256
     3  C   -0.136886   0.229461   8.205487   0.109247  -0.131888   0.473873
     4  C   -0.039219  -0.308516   0.109247   7.992929   0.636626  -3.111002
     5  N    0.002448  -0.063502  -0.131888   0.636626   7.101117  -0.470940
     6  C   -0.035474  -0.691256   0.473873  -3.111002  -0.470940  14.323535
     7  C    0.001859   0.194393  -0.058352   0.483441   0.085576  -2.671298
     8  O   -0.000207  -0.009538   0.002427  -0.006153   0.001602   0.068690
     9  C    0.000054  -0.031194  -0.005592   0.002316   0.065959   0.142172
    10  C    0.000011  -0.005426   0.006799  -0.136908  -0.032854   0.258489
    11  O    0.000000   0.000062  -0.000035  -0.001029  -0.000058   0.011815
    12  O   -0.000002   0.000064   0.000410   0.019778   0.000501  -0.035346
    13  C    0.041674   0.512068  -0.331869   0.331276   0.286885  -3.698990
    14  C   -0.022570  -0.205648   0.147688  -0.309276  -0.036449   1.029316
    15  O   -0.008267   0.034208  -0.032426   0.264128  -0.039681  -0.314158
    16  C    0.016285  -0.383324   1.107471  -0.899487   0.044236   0.537510
    17  C   -0.022877  -1.473538  -1.240630   0.280338   0.033265  -0.075484
    18  Cl   0.000166   0.068393   0.118586  -0.037869  -0.001090   0.004107
    19  C    0.067301  -0.120873  -1.305799  -0.458962   0.017977  -0.050365
    20  C   -0.053472  -1.805705  -1.490393   0.412076  -0.032060  -0.216719
    21  H    0.257336   0.094363   0.036092   0.014608   0.000015   0.001370
    22  H    0.000023   0.002825   0.004279   0.014088  -0.034887   0.443354
    23  H   -0.000008  -0.001095  -0.000349  -0.005824  -0.016099   0.059690
    24  H    0.000002  -0.003836  -0.003200   0.000856   0.010963   0.018231
    25  H   -0.000005   0.000151   0.000193  -0.006986  -0.001164  -0.021588
    26  H    0.000000   0.000005  -0.000145   0.005279   0.000232   0.011504
    27  H    0.000000   0.000003   0.000017  -0.000100  -0.000022  -0.004859
    28  H   -0.000086   0.001797  -0.000214   0.012415   0.010145  -0.060724
    29  H    0.001733   0.007456  -0.005574   0.016807  -0.002432  -0.014427
    30  H    0.000217   0.001706  -0.000039   0.006398  -0.000035  -0.019163
    31  H    0.000048   0.003659  -0.003016   0.008493   0.002742  -0.070944
    32  H   -0.000401   0.020359  -0.023168  -0.021989   0.007555   0.007920
    33  H   -0.000670   0.026995  -0.016786  -0.001385  -0.000034  -0.000008
    34  H   -0.006219  -0.209158  -0.004973   0.009649   0.000046   0.000249
              7          8          9         10         11         12
     1  O    0.001859  -0.000207   0.000054   0.000011   0.000000  -0.000002
     2  C    0.194393  -0.009538  -0.031194  -0.005426   0.000062   0.000064
     3  C   -0.058352   0.002427  -0.005592   0.006799  -0.000035   0.000410
     4  C    0.483441  -0.006153   0.002316  -0.136908  -0.001029   0.019778
     5  N    0.085576   0.001602   0.065959  -0.032854  -0.000058   0.000501
     6  C   -2.671298   0.068690   0.142172   0.258489   0.011815  -0.035346
     7  C    7.499759   0.295552  -0.730276  -0.046088  -0.025455   0.012508
     8  O    0.295552   8.132568  -0.153512   0.050590  -0.000689  -0.003229
     9  C   -0.730276  -0.153512   6.445439  -0.083872  -0.025967  -0.032228
    10  C   -0.046088   0.050590  -0.083872   4.947687   0.291955   0.383983
    11  O   -0.025455  -0.000689  -0.025967   0.291955   7.983694  -0.083607
    12  O    0.012508  -0.003229  -0.032228   0.383983  -0.083607   8.244570
    13  C    1.127196  -0.132647  -0.143280  -0.081337  -0.002122   0.021600
    14  C   -0.452156   0.039020   0.008687   0.041823  -0.000933  -0.000487
    15  O    0.069109  -0.003115  -0.006617  -0.000938  -0.000023  -0.000245
    16  C   -0.207957   0.006462   0.038538   0.003242  -0.000101  -0.000182
    17  C   -0.026161   0.000856   0.006737  -0.000237  -0.000007  -0.000041
    18  Cl   0.000359  -0.000006  -0.000005   0.000006   0.000000  -0.000001
    19  C   -0.015020   0.000168   0.001576   0.000027  -0.000001   0.000022
    20  C    0.054153  -0.001171  -0.007078  -0.000760   0.000005  -0.000047
    21  H    0.000004  -0.000017   0.000038  -0.000002   0.000000   0.000000
    22  H   -0.126871   0.008108   0.027609  -0.002290  -0.000683   0.003221
    23  H    0.444111  -0.052782  -0.089095   0.002597   0.000069   0.003127
    24  H   -0.008905   0.273268   0.026073  -0.006161   0.000007   0.000282
    25  H   -0.013868   0.004323   0.432270  -0.046047  -0.001471   0.001245
    26  H   -0.044373   0.002166   0.433797  -0.043757   0.002784  -0.003478
    27  H    0.008744   0.000025  -0.012386  -0.006526   0.275146   0.021659
    28  H    0.012461  -0.000302   0.001738   0.000290  -0.000139   0.000191
    29  H   -0.009918  -0.008244   0.002649  -0.001184   0.000010   0.000025
    30  H    0.007822   0.001949   0.000765   0.000165   0.000005  -0.000003
    31  H    0.026694  -0.003041  -0.003516  -0.001160  -0.000190   0.000030
    32  H   -0.001330   0.000020   0.000094   0.000053   0.000000   0.000003
    33  H    0.000002   0.000000   0.000000   0.000000   0.000000   0.000000
    34  H    0.000001   0.000000  -0.000001   0.000000   0.000000   0.000000
             13         14         15         16         17         18
     1  O    0.041674  -0.022570  -0.008267   0.016285  -0.022877   0.000166
     2  C    0.512068  -0.205648   0.034208  -0.383324  -1.473538   0.068393
     3  C   -0.331869   0.147688  -0.032426   1.107471  -1.240630   0.118586
     4  C    0.331276  -0.309276   0.264128  -0.899487   0.280338  -0.037869
     5  N    0.286885  -0.036449  -0.039681   0.044236   0.033265  -0.001090
     6  C   -3.698990   1.029316  -0.314158   0.537510  -0.075484   0.004107
     7  C    1.127196  -0.452156   0.069109  -0.207957  -0.026161   0.000359
     8  O   -0.132647   0.039020  -0.003115   0.006462   0.000856  -0.000006
     9  C   -0.143280   0.008687  -0.006617   0.038538   0.006737  -0.000005
    10  C   -0.081337   0.041823  -0.000938   0.003242  -0.000237   0.000006
    11  O   -0.002122  -0.000933  -0.000023  -0.000101  -0.000007   0.000000
    12  O    0.021600  -0.000487  -0.000245  -0.000182  -0.000041  -0.000001
    13  C    8.214665  -0.545812   0.384598  -0.523226  -0.028075  -0.001514
    14  C   -0.545812   5.736366  -0.149437   0.109467   0.007664  -0.000108
    15  O    0.384598  -0.149437   8.246491  -0.026149  -0.008956  -0.000020
    16  C   -0.523226   0.109467  -0.026149   8.439142   0.680529   0.146887
    17  C   -0.028075   0.007664  -0.008956   0.680529   9.391788  -0.724245
    18  Cl  -0.001514  -0.000108  -0.000020   0.146887  -0.724245  17.094079
    19  C   -0.020143   0.008006   0.002832  -1.252286  -1.803478   0.386875
    20  C    0.225026  -0.090801   0.012108  -1.674680   0.131770   0.041771
    21  H   -0.000342   0.001586   0.001673   0.003801   0.000524  -0.000009
    22  H   -0.031528   0.009352   0.003797   0.002635  -0.000162   0.000033
    23  H   -0.040664   0.000437  -0.001222   0.002884   0.000023  -0.000001
    24  H   -0.020476  -0.000639  -0.001290   0.006285   0.000488   0.000000
    25  H    0.010941  -0.007910   0.000575  -0.000257  -0.000011   0.000000
    26  H   -0.003310   0.003665  -0.000035   0.000053  -0.000002   0.000000
    27  H    0.001325  -0.000020  -0.000002  -0.000007   0.000000   0.000000
    28  H    0.461188  -0.070846  -0.040409   0.003195   0.000265   0.000004
    29  H   -0.027273   0.426660  -0.005819  -0.003651   0.000033   0.000003
    30  H   -0.016407   0.396969   0.000583  -0.000222  -0.000152  -0.000001
    31  H    0.007318   0.385424   0.011270  -0.000678   0.000021   0.000000
    32  H    0.002118   0.000211   0.000063   0.414488  -0.071874  -0.008729
    33  H    0.000058  -0.000011  -0.000004   0.026172  -0.056980  -0.005250
    34  H    0.000015   0.000009   0.000093  -0.017990   0.061155  -0.000843
             19         20         21         22         23         24
     1  O    0.067301  -0.053472   0.257336   0.000023  -0.000008   0.000002
     2  C   -0.120873  -1.805705   0.094363   0.002825  -0.001095  -0.003836
     3  C   -1.305799  -1.490393   0.036092   0.004279  -0.000349  -0.003200
     4  C   -0.458962   0.412076   0.014608   0.014088  -0.005824   0.000856
     5  N    0.017977  -0.032060   0.000015  -0.034887  -0.016099   0.010963
     6  C   -0.050365  -0.216719   0.001370   0.443354   0.059690   0.018231
     7  C   -0.015020   0.054153   0.000004  -0.126871   0.444111  -0.008905
     8  O    0.000168  -0.001171  -0.000017   0.008108  -0.052782   0.273268
     9  C    0.001576  -0.007078   0.000038   0.027609  -0.089095   0.026073
    10  C    0.000027  -0.000760  -0.000002  -0.002290   0.002597  -0.006161
    11  O   -0.000001   0.000005   0.000000  -0.000683   0.000069   0.000007
    12  O    0.000022  -0.000047   0.000000   0.003221   0.003127   0.000282
    13  C   -0.020143   0.225026  -0.000342  -0.031528  -0.040664  -0.020476
    14  C    0.008006  -0.090801   0.001586   0.009352   0.000437  -0.000639
    15  O    0.002832   0.012108   0.001673   0.003797  -0.001222  -0.001290
    16  C   -1.252286  -1.674680   0.003801   0.002635   0.002884   0.006285
    17  C   -1.803478   0.131770   0.000524  -0.000162   0.000023   0.000488
    18  Cl   0.386875   0.041771  -0.000009   0.000033  -0.000001   0.000000
    19  C   11.218620  -0.297916  -0.008790   0.000136   0.000087   0.000206
    20  C   -0.297916  10.627936  -0.141586   0.000105  -0.000143  -0.000844
    21  H   -0.008790  -0.141586   0.391424  -0.000002   0.000000  -0.000003
    22  H    0.000136   0.000105  -0.000002   0.572999  -0.007947  -0.000110
    23  H    0.000087  -0.000143   0.000000  -0.007947   0.581576  -0.006058
    24  H    0.000206  -0.000844  -0.000003  -0.000110  -0.006058   0.402791
    25  H   -0.000004   0.000030   0.000000   0.000332   0.006668  -0.000558
    26  H    0.000001  -0.000005   0.000000  -0.000109  -0.005374  -0.000338
    27  H    0.000000   0.000000   0.000000   0.000037   0.000005  -0.000003
    28  H    0.000111  -0.000121   0.000007  -0.011997  -0.000331   0.000027
    29  H   -0.000336   0.003627   0.000002  -0.000256  -0.000223  -0.000619
    30  H    0.000163  -0.000497  -0.000090  -0.000116   0.000057  -0.000023
    31  H   -0.000011   0.000578  -0.000004   0.000013   0.000007   0.000000
    32  H    0.017309  -0.003101   0.000033  -0.000073   0.000003  -0.000002
    33  H    0.399838  -0.036121  -0.000008   0.000000   0.000000   0.000000
    34  H   -0.066811   0.576914   0.006895   0.000000   0.000000   0.000000
             25         26         27         28         29         30
     1  O   -0.000005   0.000000   0.000000  -0.000086   0.001733   0.000217
     2  C    0.000151   0.000005   0.000003   0.001797   0.007456   0.001706
     3  C    0.000193  -0.000145   0.000017  -0.000214  -0.005574  -0.000039
     4  C   -0.006986   0.005279  -0.000100   0.012415   0.016807   0.006398
     5  N   -0.001164   0.000232  -0.000022   0.010145  -0.002432  -0.000035
     6  C   -0.021588   0.011504  -0.004859  -0.060724  -0.014427  -0.019163
     7  C   -0.013868  -0.044373   0.008744   0.012461  -0.009918   0.007822
     8  O    0.004323   0.002166   0.000025  -0.000302  -0.008244   0.001949
     9  C    0.432270   0.433797  -0.012386   0.001738   0.002649   0.000765
    10  C   -0.046047  -0.043757  -0.006526   0.000290  -0.001184   0.000165
    11  O   -0.001471   0.002784   0.275146  -0.000139   0.000010   0.000005
    12  O    0.001245  -0.003478   0.021659   0.000191   0.000025  -0.000003
    13  C    0.010941  -0.003310   0.001325   0.461188  -0.027273  -0.016407
    14  C   -0.007910   0.003665  -0.000020  -0.070846   0.426660   0.396969
    15  O    0.000575  -0.000035  -0.000002  -0.040409  -0.005819   0.000583
    16  C   -0.000257   0.000053  -0.000007   0.003195  -0.003651  -0.000222
    17  C   -0.000011  -0.000002   0.000000   0.000265   0.000033  -0.000152
    18  Cl   0.000000   0.000000   0.000000   0.000004   0.000003  -0.000001
    19  C   -0.000004   0.000001   0.000000   0.000111  -0.000336   0.000163
    20  C    0.000030  -0.000005   0.000000  -0.000121   0.003627  -0.000497
    21  H    0.000000   0.000000   0.000000   0.000007   0.000002  -0.000090
    22  H    0.000332  -0.000109   0.000037  -0.011997  -0.000256  -0.000116
    23  H    0.006668  -0.005374   0.000005  -0.000331  -0.000223   0.000057
    24  H   -0.000558  -0.000338  -0.000003   0.000027  -0.000619  -0.000023
    25  H    0.506368  -0.029845   0.000081  -0.002206  -0.000037   0.000066
    26  H   -0.029845   0.499826  -0.000406   0.000110  -0.000002  -0.000004
    27  H    0.000081  -0.000406   0.370966  -0.000003   0.000000   0.000000
    28  H   -0.002206   0.000110  -0.000003   0.552427   0.005887  -0.007025
    29  H   -0.000037  -0.000002   0.000000   0.005887   0.516570  -0.032250
    30  H    0.000066  -0.000004   0.000000  -0.007025  -0.032250   0.537381
    31  H    0.004572  -0.000165  -0.000001  -0.001558  -0.025081  -0.024261
    32  H    0.000000   0.000000   0.000000  -0.000004   0.000000  -0.000001
    33  H    0.000000   0.000000   0.000000   0.000000   0.000000   0.000000
    34  H    0.000000   0.000000   0.000000   0.000000  -0.000001   0.000000
             31         32         33         34
     1  O    0.000048  -0.000401  -0.000670  -0.006219
     2  C    0.003659   0.020359   0.026995  -0.209158
     3  C   -0.003016  -0.023168  -0.016786  -0.004973
     4  C    0.008493  -0.021989  -0.001385   0.009649
     5  N    0.002742   0.007555  -0.000034   0.000046
     6  C   -0.070944   0.007920  -0.000008   0.000249
     7  C    0.026694  -0.001330   0.000002   0.000001
     8  O   -0.003041   0.000020   0.000000   0.000000
     9  C   -0.003516   0.000094   0.000000  -0.000001
    10  C   -0.001160   0.000053   0.000000   0.000000
    11  O   -0.000190   0.000000   0.000000   0.000000
    12  O    0.000030   0.000003   0.000000   0.000000
    13  C    0.007318   0.002118   0.000058   0.000015
    14  C    0.385424   0.000211  -0.000011   0.000009
    15  O    0.011270   0.000063  -0.000004   0.000093
    16  C   -0.000678   0.414488   0.026172  -0.017990
    17  C    0.000021  -0.071874  -0.056980   0.061155
    18  Cl   0.000000  -0.008729  -0.005250  -0.000843
    19  C   -0.000011   0.017309   0.399838  -0.066811
    20  C    0.000578  -0.003101  -0.036121   0.576914
    21  H   -0.000004   0.000033  -0.000008   0.006895
    22  H    0.000013  -0.000073   0.000000   0.000000
    23  H    0.000007   0.000003   0.000000   0.000000
    24  H    0.000000  -0.000002   0.000000   0.000000
    25  H    0.004572   0.000000   0.000000   0.000000
    26  H   -0.000165   0.000000   0.000000   0.000000
    27  H   -0.000001   0.000000   0.000000   0.000000
    28  H   -0.001558  -0.000004   0.000000   0.000000
    29  H   -0.025081   0.000000   0.000000  -0.000001
    30  H   -0.024261  -0.000001   0.000000   0.000000
    31  H    0.543092  -0.000001   0.000000   0.000000
    32  H   -0.000001   0.500641  -0.000099   0.000040
    33  H    0.000000  -0.000099   0.518148  -0.004911
    34  H    0.000000   0.000040  -0.004911   0.525015
 Mulliken atomic charges:
              1
     1  O   -0.511535
     2  C   -0.184255
     3  C    0.349306
     4  C    0.723957
     5  N   -0.444698
     6  C    0.170921
     7  C    0.114285
     8  O   -0.513141
     9  C   -0.311894
    10  C    0.507830
    11  O   -0.423045
    12  O   -0.554323
    13  C    0.021063
    14  C   -0.459247
    15  O   -0.392715
    16  C   -0.599085
    17  C    0.937454
    18  Cl  -0.081577
    19  C   -0.720461
    20  C   -0.232879
    21  H    0.341080
    22  H    0.124086
    23  H    0.125875
    24  H    0.313587
    25  H    0.164142
    26  H    0.171924
    27  H    0.346327
    28  H    0.133705
    29  H    0.155864
    30  H    0.146042
    31  H    0.139667
    32  H    0.159862
    33  H    0.151055
    34  H    0.130825
 Sum of Mulliken atomic charges =   0.00000
 Mulliken charges with hydrogens summed into heavy atoms:
              1
     1  O   -0.170455
     2  C   -0.184255
     3  C    0.349306
     4  C    0.723957
     5  N   -0.444698
     6  C    0.295007
     7  C    0.240160
     8  O   -0.199555
     9  C    0.024171
    10  C    0.507830
    11  O   -0.076717
    12  O   -0.554323
    13  C    0.154769
    14  C   -0.017675
    15  O   -0.392715
    16  C   -0.439223
    17  C    0.937454
    18  Cl  -0.081577
    19  C   -0.569406
    20  C   -0.102054
 Sum of Mulliken charges with hydrogens summed into heavy atoms =   0.00000
 Electronic spatial extent (au):  <R**2>=           8354.8066
 Charge=              0.0000 electrons
 Dipole moment (field-independent basis, Debye):
    X=             -0.1426    Y=              5.3765    Z=             -1.3899  Tot=              5.5551
 Quadrupole moment (field-independent basis, Debye-Ang):
   XX=            -95.9448   YY=           -121.2172   ZZ=           -126.6804
   XY=             17.9061   XZ=              9.1180   YZ=              0.2604
 Traceless Quadrupole moment (field-independent basis, Debye-Ang):
   XX=             18.6693   YY=             -6.6030   ZZ=            -12.0663
   XY=             17.9061   XZ=              9.1180   YZ=              0.2604
 Octapole moment (field-independent basis, Debye-Ang**2):
  XXX=            -88.8868  YYY=             70.5837  ZZZ=             -9.6229  XYY=             33.4771
  XXY=             59.1018  XXZ=            -48.0274  XZZ=            -28.8571  YZZ=             -9.6579
  YYZ=             -0.5129  XYZ=              1.6987
 Hexadecapole moment (field-independent basis, Debye-Ang**3):
 XXXX=          -7456.2855 YYYY=          -1640.8692 ZZZZ=           -517.3544 XXXY=            661.7374
 XXXZ=            297.6143 YYYX=            145.8283 YYYZ=            -11.9759 ZZZX=             88.9879
 ZZZY=              7.3338 XXYY=          -1612.4215 XXZZ=          -1482.0352 YYZZ=           -391.4417
 XXYZ=             53.4447 YYXZ=             16.2107 ZZXY=             50.3253
 N-N= 1.672457956763D+03 E-N=-6.625968283501D+03  KE= 1.390536975221D+03
 1\1\GINC-PROD2-0123\SP\RB3LYP\6-311+G(2d,p)\C13H14Cl1N1O5\YUHENG\26-Ma
 r-2019\0\\# b3lyp/6-311+G(2d,p) nmr guess=read geom=check integral(ult
 rafinegrid) scrf=(iefpcm,read,solvent=methanol)\\Candidate Structure: 
 1b, Conformer: 10, NMR calculation with methanol solvation\\0,1\O,0,-1
 .9437822981,3.9171400568,-2.8024302661\C,0,-2.1920095663,3.4440169927,
 -1.5605700655\C,0,-1.1399117226,2.8431956692,-0.8496990799\C,0,0.22605
 3763,2.7493797399,-1.4008842141\N,0,0.9884832088,1.7312649689,-1.29872
 91425\C,0,2.2852368328,2.1524647319,-1.8591028885\C,0,2.9920136989,0.9
 698274118,-2.5200644475\O,0,2.2216115051,0.3838734684,-3.5530288327\C,
 0,4.3383662605,1.3374605689,-3.131481222\C,0,5.3934390968,1.667410077,
 -2.1061784601\O,0,6.4993393691,2.1561074616,-2.6774217983\O,0,5.287696
 2606,1.5025781424,-0.9096624689\C,0,1.9256431026,3.3987114748,-2.70101
 79695\C,0,1.5539618343,3.2038710392,-4.1628959019\O,0,0.7226285286,3.8
 496473539,-2.0133034526\C,0,-1.3824237193,2.290319355,0.4109625057\C,0
 ,-2.6526302343,2.3559178067,0.9630836888\Cl,0,-2.9415467558,1.67087641
 82,2.5458453467\C,0,-3.6990630088,2.9638369312,0.2746196403\C,0,-3.465
 356417,3.5012096182,-0.9851132322\H,0,-2.7597966883,4.2710494198,-3.20
 12761198\H,0,2.9190275491,2.4660065853,-1.0167285548\H,0,3.1670868122,
 0.2343338035,-1.7218588349\H,0,1.3640951536,0.121635554,-3.1762809345\
 H,0,4.2626926134,2.1727995222,-3.8347298823\H,0,4.7072860154,0.4823819
 273,-3.7107553745\H,0,7.1679131061,2.3305268043,-1.9815373731\H,0,2.66
 96799625,4.190954827,-2.5859591001\H,0,0.7478015754,2.4738875345,-4.26
 13721637\H,0,1.2154667684,4.1609741405,-4.567684679\H,0,2.4026453617,2
 .8509836629,-4.751782269\H,0,-0.5645710939,1.8198995999,0.9488416522\H
 ,0,-4.6904320586,3.0134923047,0.7155158123\H,0,-4.2793998156,3.9642100
 275,-1.5384009181\\Version=EM64L-G09RevB.01\State=1-A\HF=-1395.2412165
 \RMSD=4.660e-09\Dipole=-0.464153,1.4291659,-1.5870475\Quadrupole=21.33
 6654,-8.0655356,-13.2711184,-3.3011193,3.0095622,-1.9163544\PG=C01 [X(
 C13H14Cl1N1O5)]\\@


 THE REASON MAN'S BEST FRIEND IS A DOG IS BECAUSE
 HE WAGS HIS TAIL INSTEAD OF HIS TONGUE.
 Job cpu time:  0 days  2 hours 30 minutes 42.9 seconds.
 File lengths (MBytes):  RWF=    332 Int=      0 D2E=      0 Chk=     30 Scr=      1
 Normal termination of Gaussian 09 at Tue Mar 26 02:52:03 2019.
