 Entering Gaussian System, Link 0=g09
 Initial command:
 /home/yuheng/proj/yuheng/g09/l1.exe /home/yuheng/proj/yuheng/g09_scratch/Gau-170204.inp -scrdir=/home/yuheng/proj/yuheng/g09_scratch/
 Entering Link 1 = /home/yuheng/proj/yuheng/g09/l1.exe PID=    170205.
  
 Copyright (c) 1988,1990,1992,1993,1995,1998,2003,2009,2010,
            Gaussian, Inc.  All Rights Reserved.
  
 This is part of the Gaussian(R) 09 program.  It is based on
 the Gaussian(R) 03 system (copyright 2003, Gaussian, Inc.),
 the Gaussian(R) 98 system (copyright 1998, Gaussian, Inc.),
 the Gaussian(R) 94 system (copyright 1995, Gaussian, Inc.),
 the Gaussian 92(TM) system (copyright 1992, Gaussian, Inc.),
 the Gaussian 90(TM) system (copyright 1990, Gaussian, Inc.),
 the Gaussian 88(TM) system (copyright 1988, Gaussian, Inc.),
 the Gaussian 86(TM) system (copyright 1986, Carnegie Mellon
 University), and the Gaussian 82(TM) system (copyright 1983,
 Carnegie Mellon University). Gaussian is a federally registered
 trademark of Gaussian, Inc.
  
 This software contains proprietary and confidential information,
 including trade secrets, belonging to Gaussian, Inc.
  
 This software is provided under written license and may be
 used, copied, transmitted, or stored only in accord with that
 written license.
  
 The following legend is applicable only to US Government
 contracts under FAR:
  
                    RESTRICTED RIGHTS LEGEND
  
 Use, reproduction and disclosure by the US Government is
 subject to restrictions as set forth in subparagraphs (a)
 and (c) of the Commercial Computer Software - Restricted
 Rights clause in FAR 52.227-19.
  
 Gaussian, Inc.
 340 Quinnipiac St., Bldg. 40, Wallingford CT 06492
  
  
 ---------------------------------------------------------------
 Warning -- This program may not be used in any manner that
 competes with the business of Gaussian, Inc. or will provide
 assistance to any competitor of Gaussian, Inc.  The licensee
 of this program is prohibited from giving any competitor of
 Gaussian, Inc. access to this program.  By using this program,
 the user acknowledges that Gaussian, Inc. is engaged in the
 business of creating and licensing software in the field of
 computational chemistry and represents and warrants to the
 licensee that it is not a competitor of Gaussian, Inc. and that
 it will not use this program in any manner prohibited above.
 ---------------------------------------------------------------
  

 Cite this work as:
 Gaussian 09, Revision B.01,
 M. J. Frisch, G. W. Trucks, H. B. Schlegel, G. E. Scuseria, 
 M. A. Robb, J. R. Cheeseman, G. Scalmani, V. Barone, B. Mennucci, 
 G. A. Petersson, H. Nakatsuji, M. Caricato, X. Li, H. P. Hratchian, 
 A. F. Izmaylov, J. Bloino, G. Zheng, J. L. Sonnenberg, M. Hada, 
 M. Ehara, K. Toyota, R. Fukuda, J. Hasegawa, M. Ishida, T. Nakajima, 
 Y. Honda, O. Kitao, H. Nakai, T. Vreven, J. A. Montgomery, Jr., 
 J. E. Peralta, F. Ogliaro, M. Bearpark, J. J. Heyd, E. Brothers, 
 K. N. Kudin, V. N. Staroverov, T. Keith, R. Kobayashi, J. Normand, 
 K. Raghavachari, A. Rendell, J. C. Burant, S. S. Iyengar, J. Tomasi, 
 M. Cossi, N. Rega, J. M. Millam, M. Klene, J. E. Knox, J. B. Cross, 
 V. Bakken, C. Adamo, J. Jaramillo, R. Gomperts, R. E. Stratmann, 
 O. Yazyev, A. J. Austin, R. Cammi, C. Pomelli, J. W. Ochterski, 
 R. L. Martin, K. Morokuma, V. G. Zakrzewski, G. A. Voth, 
 P. Salvador, J. J. Dannenberg, S. Dapprich, A. D. Daniels, 
 O. Farkas, J. B. Foresman, J. V. Ortiz, J. Cioslowski, 
 and D. J. Fox, Gaussian, Inc., Wallingford CT, 2010.
 
 ******************************************
 Gaussian 09:  EM64L-G09RevB.01 12-Aug-2010
                26-Mar-2019 
 ******************************************
 %mem=16gb
 %nprocshared=20
 Will use up to   20 processors via shared memory.
 %chk=1b-conf-12.chk
 ----------------------------------------------------------------------
 # b3lyp/6-311+G(2d,p) nmr guess=read geom=check integral(ultrafinegrid
 ) scrf=(iefpcm,read,solvent=methanol)
 ----------------------------------------------------------------------
 1/29=2,38=1,40=2/1;
 2/12=2,40=1/2;
 3/5=4,6=6,7=112,11=2,14=-4,16=1,25=1,30=1,70=2203,72=3,74=-5,75=-5,116=-2/1,2,8,3;
 4/5=1/1;
 5/5=2,38=6,53=3/2;
 8/6=1,10=90,11=11/1;
 10/13=100,45=16/2;
 6/7=2,8=2,9=2,10=2,28=1/1;
 99/9=1/99;
 ----------------------------------------------------------------------
 Candidate Structure: 1b, Conformer: 12, NMR calculation with methanol 
 solvation
 ----------------------------------------------------------------------
 Redundant internal coordinates taken from checkpoint file:
 1b-conf-12.chk
 Charge =  0 Multiplicity = 1
 O,0,-1.3069591896,2.6331023144,-0.0524832412
 C,0,-2.2640576073,1.6922718009,-0.0253107483
 C,0,-1.9865009412,0.3174934715,-0.1724656725
 C,0,-0.6069834706,-0.1196648292,-0.3808317882
 N,0,0.4085473231,0.664136146,-0.4151785785
 C,0,1.5682599149,-0.1716784368,-0.7603880361
 C,0,2.8370035119,0.3586264439,-0.0897126135
 O,0,2.7436819891,0.3874665537,1.3207002946
 C,0,4.0618430947,-0.4635263632,-0.4504692432
 C,0,5.3431565574,0.2361632852,-0.0630510857
 O,0,6.3474187674,-0.6298807318,0.1135406427
 O,0,5.4804971827,1.4341635043,0.0430278699
 C,0,1.0709557629,-1.6035794045,-0.4479159658
 C,0,1.3295748528,-2.1769555017,0.9353525518
 O,0,-0.3780514887,-1.4323972988,-0.5697407353
 C,0,-3.026684492,-0.6204089866,-0.1254151597
 C,0,-4.3257380955,-0.1866519553,0.0628507287
 Cl,0,-5.6273240432,-1.3538800389,0.1221513193
 C,0,-4.6159577307,1.1723588354,0.2072399246
 C,0,-3.5898586699,2.1027339178,0.1625421349
 H,0,-0.4281742257,2.1920588068,-0.1866580461
 H,0,1.7251244605,-0.0822892312,-1.846645501
 H,0,2.9831522744,1.3781799304,-0.474758496
 H,0,2.0522701287,1.022720721,1.5735790487
 H,0,4.1040773014,-0.6250600596,-1.5354640989
 H,0,4.0426498786,-1.4489099879,0.0226745153
 H,0,7.1659953569,-0.1318453509,0.3205730639
 H,0,1.3664605023,-2.3083113543,-1.2286506608
 H,0,0.9715274438,-1.496146378,1.7104366686
 H,0,0.8039509496,-3.1312352318,1.0217202761
 H,0,2.3940485998,-2.3468193801,1.1059150973
 H,0,-2.8020102356,-1.676794489,-0.2378789864
 H,0,-5.6424836908,1.4955395286,0.3550596313
 H,0,-3.7946854832,3.1631917157,0.2748662999
 Recover connectivity data from disk.
                          Input orientation:                          
 ---------------------------------------------------------------------
 Center     Atomic      Atomic             Coordinates (Angstroms)
 Number     Number       Type             X           Y           Z
 ---------------------------------------------------------------------
      1          8           0       -1.306959    2.633102   -0.052483
      2          6           0       -2.264058    1.692272   -0.025311
      3          6           0       -1.986501    0.317493   -0.172466
      4          6           0       -0.606983   -0.119665   -0.380832
      5          7           0        0.408547    0.664136   -0.415179
      6          6           0        1.568260   -0.171678   -0.760388
      7          6           0        2.837004    0.358626   -0.089713
      8          8           0        2.743682    0.387467    1.320700
      9          6           0        4.061843   -0.463526   -0.450469
     10          6           0        5.343157    0.236163   -0.063051
     11          8           0        6.347419   -0.629881    0.113541
     12          8           0        5.480497    1.434164    0.043028
     13          6           0        1.070956   -1.603579   -0.447916
     14          6           0        1.329575   -2.176956    0.935353
     15          8           0       -0.378051   -1.432397   -0.569741
     16          6           0       -3.026684   -0.620409   -0.125415
     17          6           0       -4.325738   -0.186652    0.062851
     18         17           0       -5.627324   -1.353880    0.122151
     19          6           0       -4.615958    1.172359    0.207240
     20          6           0       -3.589859    2.102734    0.162542
     21          1           0       -0.428174    2.192059   -0.186658
     22          1           0        1.725124   -0.082289   -1.846646
     23          1           0        2.983152    1.378180   -0.474758
     24          1           0        2.052270    1.022721    1.573579
     25          1           0        4.104077   -0.625060   -1.535464
     26          1           0        4.042650   -1.448910    0.022675
     27          1           0        7.165995   -0.131845    0.320573
     28          1           0        1.366461   -2.308311   -1.228651
     29          1           0        0.971527   -1.496146    1.710437
     30          1           0        0.803951   -3.131235    1.021720
     31          1           0        2.394049   -2.346819    1.105915
     32          1           0       -2.802010   -1.676794   -0.237879
     33          1           0       -5.642484    1.495540    0.355060
     34          1           0       -3.794685    3.163192    0.274866
 ---------------------------------------------------------------------
                    Distance matrix (angstroms):
                    1          2          3          4          5
     1  O    0.000000
     2  C    1.342363   0.000000
     3  C    2.416240   1.410215   0.000000
     4  C    2.859284   2.481009   1.462051   0.000000
     5  N    2.636539   2.889961   2.432145   1.283287   0.000000
     6  C    4.078579   4.324501   3.636106   2.208722   1.470608
     7  C    4.727267   5.272910   4.824390   3.489206   2.469142
     8  O    4.830756   5.347122   4.960753   3.792012   2.922786
     9  C    6.210599   6.696659   6.104895   4.681990   3.823537
    10  C    7.068909   7.745410   7.330925   5.969235   4.965634
    11  O    8.322507   8.920157   8.392469   6.990596   6.101165
    12  O    6.893195   7.749156   7.553109   6.296941   5.150492
    13  C    4.874456   4.707817   3.621386   2.240978   2.362708
    14  C    5.573490   5.367307   4.294869   3.116897   3.277808
    15  O    4.202227   3.690119   2.409783   1.345869   2.244567
    16  C    3.680776   2.437235   1.401377   2.484137   3.678972
    17  C    4.132474   2.790816   2.404489   3.745728   4.833819
    18  Cl   5.881503   4.540082   4.016949   5.194237   6.386929
    19  C    3.626389   2.419881   2.790881   4.252885   5.088354
    20  C    2.353541   1.400541   2.422823   3.759236   4.288423
    21  H    0.992363   1.909526   2.437741   2.326745   1.756950
    22  H    4.448135   4.730740   4.091316   2.754766   2.083176
    23  H    4.489789   5.275781   5.090569   3.891200   2.672452
    24  H    4.064705   4.651390   4.456197   3.492334   2.604912
    25  H    6.488002   6.942891   6.311998   4.876750   4.071119
    26  H    6.729546   7.045842   6.285612   4.852711   4.226509
    27  H    8.920486   9.611084   9.176774   7.804570   6.843831
    28  H    5.740045   5.534741   4.387793   3.066505   3.227194
    29  H    5.034887   4.862905   3.947726   2.959696   3.082533
    30  H    6.231969   5.811641   4.594174   3.609355   4.077483
    31  H    6.311812   6.268324   5.284130   4.022043   3.914306
    32  H    4.565606   3.418360   2.155579   2.695038   3.977320
    33  H    4.500768   3.405459   3.877149   5.339165   6.156255
    34  H    2.564553   2.143953   3.401123   4.622611   4.938482
                    6          7          8          9         10
     6  C    0.000000
     7  C    1.529947   0.000000
     8  O    2.454626   1.413791   0.000000
     9  C    2.529660   1.518655   2.366174   0.000000
    10  C    3.860370   2.509285   2.948716   1.510438   0.000000
    11  O    4.879965   3.652598   3.934355   2.360008   1.337819
    12  O    4.304626   2.857002   3.196589   2.420195   1.210504
    13  C    1.547673   2.664111   3.144882   3.200802   4.667384
    14  C    2.636976   3.122863   2.953718   3.510218   4.788402
    15  O    2.326776   3.711438   4.078099   4.545943   5.981058
    16  C    4.660264   5.944966   6.033589   7.097711   8.413789
    17  C    5.951232   7.185087   7.203367   8.407834   9.678954
    18  Cl   7.345264   8.638426   8.633803   9.746824  11.086658
    19  C    6.402132   7.503131   7.484661   8.855108  10.006672
    20  C    5.712350   6.664090   6.663123   8.093826   9.128732
    21  H    3.146771   3.745966   3.948336   5.223216   6.095003
    22  H    1.101159   2.125440   3.360091   2.748619   4.046329
    23  H    2.117915   1.099595   2.064590   2.134490   2.653926
    24  H    2.666132   1.955343   0.972392   3.216222   3.758612
    25  H    2.690106   2.159470   3.321680   1.097766   2.108322
    26  H    2.892596   2.175638   2.597011   1.093259   2.130291
    27  H    5.701290   4.375965   4.563638   3.215631   1.898773
    28  H    2.196632   3.251497   3.957669   3.357661   4.862827
    29  H    2.866231   3.187589   2.615420   3.909715   5.025664
    30  H    3.538228   4.189000   4.029046   4.460703   5.755040
    31  H    2.982659   2.990848   2.764904   2.958152   4.090907
    32  H    4.651629   5.996947   6.119236   6.973500   8.368615
    33  H    7.484562   8.566919   8.513992   9.932813  11.065493
    34  H    6.399554   7.209563   7.179740   8.683561   9.601137
                   11         12         13         14         15
    11  O    0.000000
    12  O    2.239822   0.000000
    13  C    5.394848   5.377078   0.000000
    14  C    5.314845   5.573740   1.519564   0.000000
    15  O    6.807559   6.550973   1.464161   2.394924   0.000000
    16  C    9.377153   8.753387   4.226262   4.746057   2.805710
    17  C   10.682476   9.939300   5.602934   6.058476   4.187635
    18  Cl  11.996613  11.452648   6.727130   7.052460   5.295257
    19  C   11.110917  10.101184   6.362079   6.862755   5.034710
    20  C   10.306263   9.095748   5.986034   6.566110   4.832090
    21  H    7.345892   5.961506   4.089317   4.841165   3.644989
    22  H    5.050524   4.469152   2.167650   3.504797   2.806533
    23  H    3.961905   2.551072   3.542330   4.166740   4.382472
    24  H    4.828158   3.776852   3.456425   3.341788   4.065450
    25  H    2.784209   2.937102   3.367505   4.026311   4.655523
    26  H    2.447657   3.221790   3.012697   2.953609   4.460250
    27  H    0.980290   2.317395   6.317126   6.214840   7.706928
    28  H    5.424809   5.705136   1.092482   2.168300   2.060269
    29  H    5.674566   5.630078   2.163311   1.091996   2.650403
    30  H    6.149114   6.608388   2.136552   1.092881   2.610733
    31  H    4.422875   4.995170   2.171951   1.091352   3.365788
    32  H    9.215833   8.851943   3.879348   4.323960   2.458747
    33  H   12.179224  11.127526   7.437713   7.901491   6.094450
    34  H   10.829391   9.437812   6.849743   7.430441   5.788453
                   16         17         18         19         20
    16  C    0.000000
    17  C    1.382436   0.000000
    18  Cl   2.713410   1.749304   0.000000
    19  C    2.418774   1.397135   2.722496   0.000000
    20  C    2.795638   2.406812   4.012615   1.385812   0.000000
    21  H    3.829619   4.572912   6.300810   4.328103   3.182164
    22  H    5.082509   6.345865   7.716969   6.782471   6.087709
    23  H    6.343070   7.493838   9.053218   7.632428   6.643463
    24  H    5.601985   6.665123   8.168907   6.808417   5.915325
    25  H    7.268839   8.591193   9.898436   9.072306   8.337910
    26  H    7.119258   8.463145   9.670952   9.048569   8.419556
    27  H   10.214124  11.494754  12.853084  11.854460  10.986661
    28  H    4.833825   6.210518   7.186698   7.068676   6.779221
    29  H    4.485863   5.700030   6.788795   6.371853   6.012833
    30  H    4.721645   5.991971   6.732720   6.968480   6.887538
    31  H    5.820740   7.135113   8.142244   7.895088   7.516357
    32  H    1.085853   2.152373   2.866408   3.406789   3.881479
    33  H    3.398603   2.156148   2.858963   1.086302   2.149190
    34  H    3.881454   3.398297   4.877071   2.154641   1.085883
                   21         22         23         24         25
    21  H    0.000000
    22  H    3.544702   0.000000
    23  H    3.518885   2.365941   0.000000
    24  H    3.258587   3.609156   2.277845   0.000000
    25  H    5.504247   2.459848   2.528743   4.073235   0.000000
    26  H    5.769640   3.276116   3.059806   3.532120   1.763604
    27  H    7.957966   5.856822   4.517622   5.390105   3.614343
    28  H    4.955784   2.337890   4.095395   4.406654   3.228315
    29  H    4.377327   3.901248   4.133215   2.744344   4.594293
    30  H    5.596050   4.286275   5.227159   4.372436   4.869388
    31  H    5.498827   3.780631   4.089155   3.418965   3.586856
    32  H    4.539355   5.062166   6.546532   5.842328   7.105204
    33  H    5.288442   7.849758   8.666255   7.804972  10.152166
    34  H    3.534049   6.745536   7.048921   6.360437   8.945312
                   26         27         28         29         30
    26  H    0.000000
    27  H    3.402747   0.000000
    28  H    3.076747   6.385272   0.000000
    29  H    3.504649   6.493418   3.074706   0.000000
    30  H    3.783845   7.068490   2.461258   1.782113   0.000000
    31  H    2.167380   5.319243   2.551003   1.764272   1.775051
    32  H    6.853407  10.102469   4.330888   4.250665   4.087168
    33  H   10.128281  12.911495   8.130358   7.384604   7.962914
    34  H    9.097192  11.445343   7.670420   6.818143   7.831032
                   31         32         33         34
    31  H    0.000000
    32  H    5.408673   0.000000
    33  H    8.939427   4.299252   0.000000
    34  H    8.327742   4.967271   2.490352   0.000000
 Stoichiometry    C13H14ClNO5
 Framework group  C1[X(C13H14ClNO5)]
 Deg. of freedom    96
 Full point group                 C1      NOp   1
 Largest Abelian subgroup         C1      NOp   1
 Largest concise Abelian subgroup C1      NOp   1
                         Standard orientation:                         
 ---------------------------------------------------------------------
 Center     Atomic      Atomic             Coordinates (Angstroms)
 Number     Number       Type             X           Y           Z
 ---------------------------------------------------------------------
      1          8           0       -1.306959    2.633102   -0.052483
      2          6           0       -2.264058    1.692272   -0.025311
      3          6           0       -1.986501    0.317493   -0.172466
      4          6           0       -0.606983   -0.119665   -0.380832
      5          7           0        0.408547    0.664136   -0.415179
      6          6           0        1.568260   -0.171678   -0.760388
      7          6           0        2.837004    0.358626   -0.089713
      8          8           0        2.743682    0.387467    1.320700
      9          6           0        4.061843   -0.463526   -0.450469
     10          6           0        5.343157    0.236163   -0.063051
     11          8           0        6.347419   -0.629881    0.113541
     12          8           0        5.480497    1.434164    0.043028
     13          6           0        1.070956   -1.603579   -0.447916
     14          6           0        1.329575   -2.176956    0.935353
     15          8           0       -0.378051   -1.432397   -0.569741
     16          6           0       -3.026684   -0.620409   -0.125415
     17          6           0       -4.325738   -0.186652    0.062851
     18         17           0       -5.627324   -1.353880    0.122151
     19          6           0       -4.615958    1.172359    0.207240
     20          6           0       -3.589859    2.102734    0.162542
     21          1           0       -0.428174    2.192059   -0.186658
     22          1           0        1.725124   -0.082289   -1.846646
     23          1           0        2.983152    1.378180   -0.474758
     24          1           0        2.052270    1.022721    1.573579
     25          1           0        4.104077   -0.625060   -1.535464
     26          1           0        4.042650   -1.448910    0.022675
     27          1           0        7.165995   -0.131845    0.320573
     28          1           0        1.366461   -2.308311   -1.228651
     29          1           0        0.971527   -1.496146    1.710437
     30          1           0        0.803951   -3.131235    1.021720
     31          1           0        2.394049   -2.346819    1.105915
     32          1           0       -2.802010   -1.676794   -0.237879
     33          1           0       -5.642484    1.495540    0.355060
     34          1           0       -3.794685    3.163192    0.274866
 ---------------------------------------------------------------------
 Rotational constants (GHZ):      0.8645810      0.1207220      0.1094917
 Standard basis: 6-311+G(2d,p) (5D, 7F)
 There are   632 symmetry adapted basis functions of A   symmetry.
 Integral buffers will be    131072 words long.
 Raffenetti 2 integral format.
 Two-electron integral symmetry is turned on.
   632 basis functions,   969 primitive gaussians,   672 cartesian basis functions
    78 alpha electrons       78 beta electrons
       nuclear repulsion energy      1661.3370198560 Hartrees.
 NAtoms=   34 NActive=   34 NUniq=   34 SFac= 1.00D+00 NAtFMM=   50 NAOKFM=F Big=F
 Using the following non-standard input for PCM:
 radii=bondi
 --- end of non-standard input.
 ------------------------------------------------------------------------------
 Polarizable Continuum Model (PCM)
 =================================
 Model                : PCM.
 Atomic radii         : Bondi.
 Polarization charges : Total charges.
 Charge compensation  : None.
 Solution method      : Matrix inversion.
 Cavity type          : Scaled VdW (van der Waals Surface) (Alpha=1.100).
 Cavity algorithm     : GePol (No added spheres)
                        Default sphere list used, NSphG=   34.
                        Lebedev-Laikov grids with approx.  5.0 points / Ang**2.
                        Smoothing algorithm: Karplus/York (Gamma=1.0000).
                        Polarization charges: spherical gaussians, with
                                              point-specific exponents (IZeta= 3).
                        Self-potential: point-specific (ISelfS= 7).
                        Self-field    : sphere-specific E.n sum rule (ISelfD= 2).
 Solvent              : Methanol, Eps=  32.613000 Eps(inf)=   1.765709
 ------------------------------------------------------------------------------
 One-electron integrals computed using PRISM.
 NBasis=   632 RedAO= T  NBF=   632
 NBsUse=   630 1.00D-06 NBFU=   630
 Initial guess read from the checkpoint file:  1b-conf-12.chk
 B after Tr=     0.000000    0.000000    0.000000
         Rot=    1.000000    0.000000    0.000000    0.000000 Ang=   0.00 deg.
 Initial guess orbital symmetries:
       Occupied  (A) (A) (A) (A) (A) (A) (A) (A) (A) (A) (A) (A)
                 (A) (A) (A) (A) (A) (A) (A) (A) (A) (A) (A) (A)
                 (A) (A) (A) (A) (A) (A) (A) (A) (A) (A) (A) (A)
                 (A) (A) (A) (A) (A) (A) (A) (A) (A) (A) (A) (A)
                 (A) (A) (A) (A) (A) (A) (A) (A) (A) (A) (A) (A)
                 (A) (A) (A) (A) (A) (A) (A) (A) (A) (A) (A) (A)
                 (A) (A) (A) (A) (A) (A)
       Virtual   (A) (A) (A) (A) (A) (A) (A) (A) (A) (A) (A) (A)
                 (A) (A) (A) (A) (A) (A) (A) (A) (A) (A) (A) (A)
                 (A) (A) (A) (A) (A) (A) (A) (A) (A) (A) (A) (A)
                 (A) (A) (A) (A) (A) (A) (A) (A) (A) (A) (A) (A)
                 (A) (A) (A) (A) (A) (A) (A) (A) (A) (A) (A) (A)
                 (A) (A) (A) (A) (A) (A) (A) (A) (A) (A) (A) (A)
                 (A) (A) (A) (A) (A) (A) (A) (A) (A) (A) (A) (A)
                 (A) (A) (A) (A) (A) (A) (A) (A) (A) (A) (A) (A)
                 (A) (A) (A) (A) (A) (A) (A) (A) (A) (A) (A) (A)
                 (A) (A) (A) (A) (A) (A) (A) (A) (A) (A) (A) (A)
                 (A) (A) (A) (A) (A) (A) (A) (A) (A) (A) (A) (A)
                 (A) (A) (A) (A) (A) (A) (A) (A) (A) (A) (A) (A)
                 (A) (A) (A) (A) (A) (A) (A) (A) (A) (A) (A) (A)
                 (A) (A) (A) (A) (A) (A) (A) (A) (A) (A) (A) (A)
                 (A) (A) (A) (A) (A) (A) (A) (A) (A) (A) (A) (A)
                 (A) (A) (A) (A) (A) (A) (A) (A) (A) (A) (A) (A)
                 (A) (A) (A) (A) (A) (A) (A) (A) (A) (A) (A) (A)
                 (A) (A) (A) (A) (A) (A) (A) (A) (A) (A) (A) (A)
                 (A) (A) (A) (A) (A) (A) (A) (A) (A) (A) (A) (A)
                 (A) (A) (A) (A) (A) (A) (A) (A) (A) (A) (A) (A)
                 (A) (A) (A) (A) (A) (A) (A) (A) (A) (A) (A) (A)
                 (A) (A) (A) (A) (A) (A) (A) (A) (A) (A) (A) (A)
                 (A) (A) (A) (A) (A) (A) (A) (A) (A) (A) (A) (A)
                 (A) (A) (A) (A) (A) (A) (A) (A) (A) (A) (A) (A)
                 (A) (A) (A) (A) (A) (A) (A) (A) (A) (A) (A) (A)
                 (A) (A) (A) (A) (A) (A) (A) (A) (A) (A) (A) (A)
                 (A) (A) (A) (A) (A) (A) (A) (A) (A) (A) (A) (A)
                 (A) (A) (A) (A) (A) (A) (A) (A) (A) (A) (A) (A)
                 (A) (A) (A) (A) (A) (A) (A) (A) (A) (A) (A) (A)
                 (A) (A) (A) (A) (A) (A) (A) (A) (A) (A) (A) (A)
                 (A) (A) (A) (A) (A) (A) (A) (A) (A) (A) (A) (A)
                 (A) (A) (A) (A) (A) (A) (A) (A) (A) (A) (A) (A)
                 (A) (A) (A) (A) (A) (A) (A) (A) (A) (A) (A) (A)
                 (A) (A) (A) (A) (A) (A) (A) (A) (A) (A) (A) (A)
                 (A) (A) (A) (A) (A) (A) (A) (A) (A) (A) (A) (A)
                 (A) (A) (A) (A) (A) (A) (A) (A) (A) (A) (A) (A)
                 (A) (A) (A) (A) (A) (A) (A) (A) (A) (A) (A) (A)
                 (A) (A) (A) (A) (A) (A) (A) (A) (A) (A) (A) (A)
                 (A) (A) (A) (A) (A) (A) (A) (A) (A) (A) (A) (A)
                 (A) (A) (A) (A) (A) (A) (A) (A) (A) (A) (A) (A)
                 (A) (A) (A) (A) (A) (A) (A) (A) (A) (A) (A) (A)
                 (A) (A) (A) (A) (A) (A) (A) (A) (A) (A) (A) (A)
                 (A) (A) (A) (A) (A) (A) (A) (A) (A) (A) (A) (A)
                 (A) (A) (A) (A) (A) (A) (A) (A) (A) (A) (A) (A)
                 (A) (A) (A) (A) (A) (A) (A) (A) (A) (A) (A) (A)
                 (A) (A) (A) (A) (A) (A) (A) (A) (A) (A) (A) (A)
 Requested convergence on RMS density matrix=1.00D-08 within 128 cycles.
 Requested convergence on MAX density matrix=1.00D-06.
 Requested convergence on             energy=1.00D-06.
 No special actions if energy rises.
 Error on total polarization charges =  0.05134
 SCF Done:  E(RB3LYP) =  -1395.25560368     A.U. after   14 cycles
             Convg  =    0.1499D-08             -V/T =  2.0034
 Range of M.O.s used for correlation:     1   630
 NBasis=   632 NAE=    78 NBE=    78 NFC=     0 NFV=     0
 NROrb=    630 NOA=    78 NOB=    78 NVA=   552 NVB=   552

 **** Warning!!: The largest alpha MO coefficient is  0.12925333D+03

 NEqPCM:  Using equilibrium solvation (IEInf=0, Eps=  32.6130, EpsInf=   1.7657)
          Differentiating once with respect to magnetic field using GIAOs.
          Electric field/nuclear overlap derivatives assumed to be zero.
 FoFCou: FMM=F IPFlag=           0 FMFlag=    10101102 FMFlg1=           0
         NFxFlg=    40000000 DoJE=F BraDBF=F KetDBF=T FulRan=T
         Omega=  0.000000  0.000000  1.000000  0.000000  0.000000 ICntrl=    6100 IOpCl=  0
         NMat0=    1 NMatS0=    1 NMatT0=    0 NMatD0=    1 NMtDS0=    0 NMtDT0=    0
         I1Cent=           7 NGrid=        2508.
 Symmetry not used in FoFCou.
          There are     3 degrees of freedom in the 1st order CPHF.  IDoFFX=0.
      3 vectors produced by pass  0 Test12= 1.44D-12 3.33D-08 XBig12= 5.66D+02 6.98D+00.
 AX will form     3 AO Fock derivatives at one time.
      3 vectors produced by pass  1 Test12= 1.44D-12 3.33D-08 XBig12= 1.22D+00 3.22D-01.
      3 vectors produced by pass  2 Test12= 1.44D-12 3.33D-08 XBig12= 5.50D-03 3.67D-02.
      3 vectors produced by pass  3 Test12= 1.44D-12 3.33D-08 XBig12= 1.93D-05 1.81D-03.
      3 vectors produced by pass  4 Test12= 1.44D-12 3.33D-08 XBig12= 5.70D-08 1.10D-04.
      3 vectors produced by pass  5 Test12= 1.44D-12 3.33D-08 XBig12= 2.17D-10 4.50D-06.
      3 vectors produced by pass  6 Test12= 1.44D-12 3.33D-08 XBig12= 4.48D-13 1.92D-07.
 Inverted reduced A of dimension    21 with in-core refinement.
 Calculating GIAO nuclear magnetic shielding tensors.
 SCF GIAO Magnetic shielding tensor (ppm):
  1  O    Isotropic =   185.2112   Anisotropy =   133.9864
   XX=   142.6099   YX=    31.3715   ZX=    15.9035
   XY=    17.4376   YY=   142.4091   ZY=   -11.5075
   XZ=     1.5414   YZ=   -33.0363   ZZ=   270.6145
   Eigenvalues:   114.9779   166.1202   274.5355
  2  C    Isotropic =    16.5137   Anisotropy =   151.0122
   XX=   -31.9676   YX=   -32.2994   ZX=    14.3252
   XY=   -30.3941   YY=   -32.9939   ZY=    -9.6033
   XZ=    15.4496   YZ=   -10.3933   ZZ=   114.5026
   Eigenvalues:   -63.8950    -3.7524   117.1886
  3  C    Isotropic =    65.5499   Anisotropy =   142.0037
   XX=     4.7579   YX=    14.8338   ZX=    20.5617
   XY=     3.0041   YY=    35.0920   ZY=   -11.1486
   XZ=    18.4397   YZ=   -13.1124   ZZ=   156.7999
   Eigenvalues:    -0.7648    37.1955   160.2191
  4  C    Isotropic =     9.1159   Anisotropy =    92.9946
   XX=     6.1098   YX=    47.2971   ZX=    14.0564
   XY=    53.3628   YY=   -44.2496   ZY=   -18.9583
   XZ=    24.1720   YZ=   -11.7708   ZZ=    65.4875
   Eigenvalues:   -79.0592    35.2947    71.1123
  5  N    Isotropic =    23.1009   Anisotropy =   217.3304
   XX=   -71.8935   YX=    71.3537   ZX=    53.1717
   XY=    54.4992   YY=   -15.1383   ZY=   -47.7421
   XZ=    41.6722   YZ=   -16.1065   ZZ=   156.3346
   Eigenvalues:  -124.1908    25.5057   167.9879
  6  C    Isotropic =   106.4031   Anisotropy =    42.8884
   XX=   128.2306   YX=   -11.6941   ZX=     0.8497
   XY=   -10.4716   YY=   112.5799   ZY=     8.9849
   XZ=   -12.7717   YZ=     1.0559   ZZ=    78.3989
   Eigenvalues:    77.2799   106.9342   134.9954
  7  C    Isotropic =   109.8747   Anisotropy =    38.7690
   XX=   102.9841   YX=     5.2206   ZX=    -3.4860
   XY=     4.9857   YY=    91.1505   ZY=     5.3667
   XZ=    -1.6372   YZ=    -2.2478   ZZ=   135.4895
   Eigenvalues:    89.1337   104.7698   135.7207
  8  O    Isotropic =   285.0227   Anisotropy =    60.5043
   XX=   287.3402   YX=   -25.4646   ZX=   -40.5008
   XY=   -27.3716   YY=   289.0536   ZY=    -2.3770
   XZ=   -15.2209   YZ=     7.0834   ZZ=   278.6743
   Eigenvalues:   247.8139   281.8954   325.3589
  9  C    Isotropic =   143.9349   Anisotropy =    37.1163
   XX=   168.3876   YX=    -4.6172   ZX=    -6.5717
   XY=     2.1331   YY=   130.9735   ZY=     3.5738
   XZ=     0.8524   YZ=     4.6260   ZZ=   132.4436
   Eigenvalues:   127.5237   135.6019   168.6791
 10  C    Isotropic =     0.3880   Anisotropy =   106.0573
   XX=   -77.0338   YX=    21.8189   ZX=   -35.4787
   XY=    46.8686   YY=    15.2930   ZY=     7.2919
   XZ=   -33.3737   YZ=     2.6885   ZZ=    62.9048
   Eigenvalues:   -95.8125    25.8837    71.0929
 11  O    Isotropic =   113.6766   Anisotropy =   192.6808
   XX=   165.8510   YX=   -69.2927   ZX=     0.1849
   XY=  -178.8651   YY=    36.2973   ZY=   -46.2859
   XZ=   -20.4913   YZ=   -27.1318   ZZ=   138.8814
   Eigenvalues:   -46.1715   145.0708   242.1304
 12  O    Isotropic =   -52.1763   Anisotropy =   508.5140
   XX=  -173.0271   YX=    80.1424   ZX=  -105.5974
   XY=    46.7610   YY=  -239.4811   ZY=   -25.7780
   XZ=  -111.6492   YZ=   -47.9614   ZZ=   255.9792
   Eigenvalues:  -279.2390  -164.1230   286.8330
 13  C    Isotropic =    98.5982   Anisotropy =    77.2150
   XX=   148.5818   YX=    -4.8296   ZX=     2.9639
   XY=    -3.6573   YY=    75.8703   ZY=    -2.9326
   XZ=    15.0648   YZ=   -23.5574   ZZ=    71.3424
   Eigenvalues:    59.9676    85.7520   150.0748
 14  C    Isotropic =   164.4974   Anisotropy =    16.6369
   XX=   171.3761   YX=     4.3803   ZX=    -1.1307
   XY=    -0.6472   YY=   153.8146   ZY=    -8.8636
   XZ=     9.8270   YZ=   -10.3039   ZZ=   168.3015
   Eigenvalues:   148.4669   169.4365   175.5886
 15  O    Isotropic =   115.7829   Anisotropy =   119.6632
   XX=    35.8825   YX=   -21.9782   ZX=     3.0327
   XY=   -20.0931   YY=   189.6085   ZY=   -14.9694
   XZ=    49.7229   YZ=    -7.7737   ZZ=   121.8577
   Eigenvalues:    26.5992   125.1911   195.5584
 16  C    Isotropic =    49.1273   Anisotropy =   156.3210
   XX=    37.9490   YX=     9.7758   ZX=    14.5949
   XY=     3.0580   YY=   -40.9196   ZY=   -16.2963
   XZ=    13.5753   YZ=   -16.6491   ZZ=   150.3526
   Eigenvalues:   -43.0481    37.0887   153.3413
 17  C    Isotropic =    48.0519   Anisotropy =    99.6098
   XX=    13.4336   YX=   -57.5972   ZX=     7.4060
   XY=   -57.2287   YY=    17.2391   ZY=    -1.0937
   XZ=     7.5225   YZ=    -0.8886   ZZ=   113.4830
   Eigenvalues:   -42.2488    71.9460   114.4584
 18  Cl   Isotropic =   709.5849   Anisotropy =   495.9639
   XX=   809.6515   YX=   253.3596   ZX=    -9.5695
   XY=   252.2262   YY=   761.8628   ZY=   -13.2258
   XZ=    -9.9845   YZ=   -13.7446   ZZ=   557.2402
   Eigenvalues:   531.3828   557.1443  1040.2274
 19  C    Isotropic =    42.7120   Anisotropy =   162.5778
   XX=   -41.9879   YX=    25.9445   ZX=    25.0958
   XY=    26.2450   YY=    22.9137   ZY=   -13.4804
   XZ=    24.2040   YZ=   -12.3916   ZZ=   147.2104
   Eigenvalues:   -54.9358    31.9746   151.0973
 20  C    Isotropic =    59.6681   Anisotropy =   146.9522
   XX=    45.7852   YX=    10.0410   ZX=    13.9374
   XY=    12.9966   YY=   -21.4226   ZY=   -16.2484
   XZ=    14.3040   YZ=   -16.0235   ZZ=   154.6418
   Eigenvalues:   -25.2094    46.5775   157.6363
 21  H    Isotropic =    20.0038   Anisotropy =    25.4779
   XX=    29.8280   YX=   -10.4334   ZX=    -3.1307
   XY=    -7.7975   YY=    24.0686   ZY=     2.1963
   XZ=    -2.3817   YZ=     3.3201   ZZ=     6.1147
   Eigenvalues:     5.6041    17.4182    36.9890
 22  H    Isotropic =    27.3866   Anisotropy =     4.7865
   XX=    27.6066   YX=    -0.7983   ZX=    -0.5564
   XY=     0.0313   YY=    24.8014   ZY=    -0.5508
   XZ=    -2.5533   YZ=    -0.3776   ZZ=    29.7518
   Eigenvalues:    24.6483    26.9339    30.5776
 23  H    Isotropic =    26.6596   Anisotropy =     5.6573
   XX=    26.5116   YX=     1.8130   ZX=    -0.4043
   XY=     1.7616   YY=    27.4827   ZY=    -1.9329
   XZ=    -0.4829   YZ=    -3.7877   ZZ=    25.9846
   Eigenvalues:    23.5566    25.9911    30.4312
 24  H    Isotropic =    29.7614   Anisotropy =    17.1799
   XX=    31.9175   YX=    -8.1357   ZX=    -1.7805
   XY=    -8.0666   YY=    29.2568   ZY=     5.7883
   XZ=    -2.7492   YZ=     5.9485   ZZ=    28.1100
   Eigenvalues:    20.7746    27.2951    41.2147
 25  H    Isotropic =    29.0909   Anisotropy =     6.3943
   XX=    30.2499   YX=    -0.0852   ZX=    -1.6935
   XY=    -0.3611   YY=    25.4577   ZY=     2.1126
   XZ=    -1.7217   YZ=     2.8158   ZZ=    31.5650
   Eigenvalues:    24.5634    29.3555    33.3537
 26  H    Isotropic =    28.9049   Anisotropy =     5.6449
   XX=    32.6439   YX=     0.5049   ZX=    -0.2815
   XY=    -0.7996   YY=    30.3772   ZY=    -1.9000
   XZ=    -0.6161   YZ=    -1.5371   ZZ=    23.6937
   Eigenvalues:    23.2541    30.7925    32.6682
 27  H    Isotropic =    24.7769   Anisotropy =    12.4687
   XX=    32.5882   YX=     3.8507   ZX=     2.3665
   XY=    -1.0927   YY=    20.2384   ZY=    -0.2969
   XZ=     1.6576   YZ=     0.4970   ZZ=    21.5040
   Eigenvalues:    20.0731    21.1681    33.0894
 28  H    Isotropic =    26.6625   Anisotropy =     4.2667
   XX=    26.7086   YX=    -1.4507   ZX=    -1.0660
   XY=    -0.1676   YY=    26.5824   ZY=     2.3764
   XZ=    -0.4708   YZ=     2.4685   ZZ=    26.6965
   Eigenvalues:    24.2155    26.2650    29.5070
 29  H    Isotropic =    30.2981   Anisotropy =     3.3764
   XX=    28.1820   YX=     0.0378   ZX=    -1.2084
   XY=     0.6633   YY=    30.3138   ZY=     0.0620
   XZ=    -0.4125   YZ=     0.0281   ZZ=    32.3984
   Eigenvalues:    27.9783    30.3669    32.5490
 30  H    Isotropic =    30.6239   Anisotropy =     9.4425
   XX=    29.0941   YX=     2.9812   ZX=     0.4149
   XY=     2.5849   YY=    34.9438   ZY=    -2.2173
   XZ=    -0.0283   YZ=    -3.9025   ZZ=    27.8340
   Eigenvalues:    26.1281    28.8248    36.9190
 31  H    Isotropic =    30.5035   Anisotropy =     8.1366
   XX=    34.9061   YX=    -0.3455   ZX=     1.6209
   XY=    -1.0117   YY=    29.8472   ZY=    -2.4823
   XZ=     3.1565   YZ=    -3.3326   ZZ=    26.7573
   Eigenvalues:    24.7131    30.8695    35.9279
 32  H    Isotropic =    23.6761   Anisotropy =    12.4573
   XX=    31.7982   YX=     0.8628   ZX=    -1.1874
   XY=     1.2026   YY=    21.0266   ZY=     0.1644
   XZ=    -1.0191   YZ=     0.2373   ZZ=    18.2034
   Eigenvalues:    18.0864    20.9608    31.9809
 33  H    Isotropic =    24.0338   Anisotropy =     7.2650
   XX=    23.5199   YX=     1.7284   ZX=    -0.2147
   XY=     1.0516   YY=    28.4912   ZY=     0.5698
   XZ=    -0.3008   YZ=     0.5054   ZZ=    20.0903
   Eigenvalues:    20.0196    23.2047    28.8771
 34  H    Isotropic =    24.5142   Anisotropy =     5.6103
   XX=    28.1120   YX=     0.0798   ZX=    -0.7456
   XY=     1.0351   YY=    24.4340   ZY=     0.1354
   XZ=    -0.6318   YZ=     0.1833   ZZ=    20.9965
   Eigenvalues:    20.9176    24.3706    28.2544
 End of Minotr Frequency-dependent properties file   721 does not exist.
 End of Minotr Frequency-dependent properties file   722 does not exist.

 **********************************************************************

            Population analysis using the SCF density.

 **********************************************************************

 Orbital symmetries:
       Occupied  (A) (A) (A) (A) (A) (A) (A) (A) (A) (A) (A) (A)
                 (A) (A) (A) (A) (A) (A) (A) (A) (A) (A) (A) (A)
                 (A) (A) (A) (A) (A) (A) (A) (A) (A) (A) (A) (A)
                 (A) (A) (A) (A) (A) (A) (A) (A) (A) (A) (A) (A)
                 (A) (A) (A) (A) (A) (A) (A) (A) (A) (A) (A) (A)
                 (A) (A) (A) (A) (A) (A) (A) (A) (A) (A) (A) (A)
                 (A) (A) (A) (A) (A) (A)
       Virtual   (A) (A) (A) (A) (A) (A) (A) (A) (A) (A) (A) (A)
                 (A) (A) (A) (A) (A) (A) (A) (A) (A) (A) (A) (A)
                 (A) (A) (A) (A) (A) (A) (A) (A) (A) (A) (A) (A)
                 (A) (A) (A) (A) (A) (A) (A) (A) (A) (A) (A) (A)
                 (A) (A) (A) (A) (A) (A) (A) (A) (A) (A) (A) (A)
                 (A) (A) (A) (A) (A) (A) (A) (A) (A) (A) (A) (A)
                 (A) (A) (A) (A) (A) (A) (A) (A) (A) (A) (A) (A)
                 (A) (A) (A) (A) (A) (A) (A) (A) (A) (A) (A) (A)
                 (A) (A) (A) (A) (A) (A) (A) (A) (A) (A) (A) (A)
                 (A) (A) (A) (A) (A) (A) (A) (A) (A) (A) (A) (A)
                 (A) (A) (A) (A) (A) (A) (A) (A) (A) (A) (A) (A)
                 (A) (A) (A) (A) (A) (A) (A) (A) (A) (A) (A) (A)
                 (A) (A) (A) (A) (A) (A) (A) (A) (A) (A) (A) (A)
                 (A) (A) (A) (A) (A) (A) (A) (A) (A) (A) (A) (A)
                 (A) (A) (A) (A) (A) (A) (A) (A) (A) (A) (A) (A)
                 (A) (A) (A) (A) (A) (A) (A) (A) (A) (A) (A) (A)
                 (A) (A) (A) (A) (A) (A) (A) (A) (A) (A) (A) (A)
                 (A) (A) (A) (A) (A) (A) (A) (A) (A) (A) (A) (A)
                 (A) (A) (A) (A) (A) (A) (A) (A) (A) (A) (A) (A)
                 (A) (A) (A) (A) (A) (A) (A) (A) (A) (A) (A) (A)
                 (A) (A) (A) (A) (A) (A) (A) (A) (A) (A) (A) (A)
                 (A) (A) (A) (A) (A) (A) (A) (A) (A) (A) (A) (A)
                 (A) (A) (A) (A) (A) (A) (A) (A) (A) (A) (A) (A)
                 (A) (A) (A) (A) (A) (A) (A) (A) (A) (A) (A) (A)
                 (A) (A) (A) (A) (A) (A) (A) (A) (A) (A) (A) (A)
                 (A) (A) (A) (A) (A) (A) (A) (A) (A) (A) (A) (A)
                 (A) (A) (A) (A) (A) (A) (A) (A) (A) (A) (A) (A)
                 (A) (A) (A) (A) (A) (A) (A) (A) (A) (A) (A) (A)
                 (A) (A) (A) (A) (A) (A) (A) (A) (A) (A) (A) (A)
                 (A) (A) (A) (A) (A) (A) (A) (A) (A) (A) (A) (A)
                 (A) (A) (A) (A) (A) (A) (A) (A) (A) (A) (A) (A)
                 (A) (A) (A) (A) (A) (A) (A) (A) (A) (A) (A) (A)
                 (A) (A) (A) (A) (A) (A) (A) (A) (A) (A) (A) (A)
                 (A) (A) (A) (A) (A) (A) (A) (A) (A) (A) (A) (A)
                 (A) (A) (A) (A) (A) (A) (A) (A) (A) (A) (A) (A)
                 (A) (A) (A) (A) (A) (A) (A) (A) (A) (A) (A) (A)
                 (A) (A) (A) (A) (A) (A) (A) (A) (A) (A) (A) (A)
                 (A) (A) (A) (A) (A) (A) (A) (A) (A) (A) (A) (A)
                 (A) (A) (A) (A) (A) (A) (A) (A) (A) (A) (A) (A)
                 (A) (A) (A) (A) (A) (A) (A) (A) (A) (A) (A) (A)
                 (A) (A) (A) (A) (A) (A) (A) (A) (A) (A) (A) (A)
                 (A) (A) (A) (A) (A) (A) (A) (A) (A) (A) (A) (A)
                 (A) (A) (A) (A) (A) (A) (A) (A) (A) (A) (A) (A)
                 (A) (A) (A) (A) (A) (A) (A) (A) (A) (A) (A) (A)
                 (A) (A) (A) (A) (A) (A) (A) (A) (A) (A) (A) (A)
                 (A) (A) (A) (A) (A) (A) (A) (A) (A) (A) (A) (A)
 The electronic state is 1-A.
 Alpha  occ. eigenvalues -- -101.55954 -19.18182 -19.17322 -19.15534 -19.13256
 Alpha  occ. eigenvalues --  -19.12716 -14.31431 -10.31914 -10.28377 -10.25591
 Alpha  occ. eigenvalues --  -10.23944 -10.23783 -10.23446 -10.21396 -10.20450
 Alpha  occ. eigenvalues --  -10.19815 -10.19675 -10.18907 -10.18569 -10.16071
 Alpha  occ. eigenvalues --   -9.47405  -7.23840  -7.22900  -7.22875  -1.12374
 Alpha  occ. eigenvalues --   -1.11092  -1.07372  -1.04000  -1.03295  -0.92456
 Alpha  occ. eigenvalues --   -0.90175  -0.85019  -0.81880  -0.79196  -0.76751
 Alpha  occ. eigenvalues --   -0.74058  -0.71939  -0.67807  -0.64541  -0.63115
 Alpha  occ. eigenvalues --   -0.61129  -0.59618  -0.58028  -0.55325  -0.54102
 Alpha  occ. eigenvalues --   -0.52059  -0.51227  -0.50651  -0.50154  -0.49600
 Alpha  occ. eigenvalues --   -0.47309  -0.47299  -0.46566  -0.45350  -0.44306
 Alpha  occ. eigenvalues --   -0.43755  -0.42667  -0.41990  -0.41238  -0.40552
 Alpha  occ. eigenvalues --   -0.39652  -0.39493  -0.38905  -0.38826  -0.38409
 Alpha  occ. eigenvalues --   -0.37715  -0.37258  -0.36069  -0.34441  -0.34047
 Alpha  occ. eigenvalues --   -0.32412  -0.32389  -0.30710  -0.29949  -0.28794
 Alpha  occ. eigenvalues --   -0.28371  -0.26296  -0.23427
 Alpha virt. eigenvalues --   -0.06092  -0.02074  -0.01186  -0.00210   0.00796
 Alpha virt. eigenvalues --    0.00939   0.01613   0.01877   0.02428   0.03084
 Alpha virt. eigenvalues --    0.03404   0.03930   0.04641   0.04872   0.05107
 Alpha virt. eigenvalues --    0.05505   0.05981   0.06333   0.06711   0.07139
 Alpha virt. eigenvalues --    0.07737   0.08196   0.08468   0.09088   0.09456
 Alpha virt. eigenvalues --    0.09590   0.09985   0.10159   0.10778   0.11441
 Alpha virt. eigenvalues --    0.11709   0.12476   0.12550   0.13142   0.13786
 Alpha virt. eigenvalues --    0.13958   0.14419   0.14713   0.15016   0.15335
 Alpha virt. eigenvalues --    0.15516   0.15860   0.16080   0.16388   0.16434
 Alpha virt. eigenvalues --    0.16677   0.17212   0.17853   0.18010   0.18385
 Alpha virt. eigenvalues --    0.18544   0.19067   0.19123   0.19306   0.20069
 Alpha virt. eigenvalues --    0.20231   0.20486   0.20847   0.21054   0.21345
 Alpha virt. eigenvalues --    0.21619   0.21925   0.22160   0.22167   0.23171
 Alpha virt. eigenvalues --    0.23222   0.23646   0.23915   0.24509   0.24643
 Alpha virt. eigenvalues --    0.24936   0.25319   0.26109   0.26414   0.26543
 Alpha virt. eigenvalues --    0.26810   0.27296   0.27520   0.27786   0.27894
 Alpha virt. eigenvalues --    0.28375   0.28479   0.29187   0.29464   0.29744
 Alpha virt. eigenvalues --    0.30144   0.30365   0.30899   0.31263   0.31392
 Alpha virt. eigenvalues --    0.32130   0.32689   0.33203   0.33613   0.33888
 Alpha virt. eigenvalues --    0.34393   0.34727   0.35015   0.35500   0.35596
 Alpha virt. eigenvalues --    0.36105   0.36798   0.37088   0.37816   0.38045
 Alpha virt. eigenvalues --    0.38939   0.40009   0.40543   0.40885   0.41692
 Alpha virt. eigenvalues --    0.42204   0.43015   0.43844   0.43913   0.45060
 Alpha virt. eigenvalues --    0.45206   0.45422   0.46214   0.46604   0.47349
 Alpha virt. eigenvalues --    0.47991   0.48437   0.49313   0.49842   0.50660
 Alpha virt. eigenvalues --    0.50871   0.52010   0.52847   0.53028   0.53448
 Alpha virt. eigenvalues --    0.53853   0.54361   0.55184   0.55694   0.56360
 Alpha virt. eigenvalues --    0.56893   0.57661   0.58517   0.58766   0.59293
 Alpha virt. eigenvalues --    0.59636   0.60180   0.61148   0.61418   0.61505
 Alpha virt. eigenvalues --    0.61959   0.62689   0.63777   0.64127   0.64381
 Alpha virt. eigenvalues --    0.65285   0.65590   0.65905   0.66449   0.67094
 Alpha virt. eigenvalues --    0.67949   0.68769   0.69187   0.69616   0.70558
 Alpha virt. eigenvalues --    0.70948   0.72185   0.72481   0.72679   0.72960
 Alpha virt. eigenvalues --    0.73192   0.74141   0.74213   0.75079   0.75571
 Alpha virt. eigenvalues --    0.76419   0.77151   0.77753   0.77975   0.78624
 Alpha virt. eigenvalues --    0.79073   0.79859   0.80049   0.81020   0.81203
 Alpha virt. eigenvalues --    0.82414   0.82730   0.83966   0.84382   0.85835
 Alpha virt. eigenvalues --    0.86515   0.86678   0.87068   0.89075   0.90344
 Alpha virt. eigenvalues --    0.90795   0.91715   0.92469   0.93488   0.95003
 Alpha virt. eigenvalues --    0.95484   0.96599   0.97541   0.97778   0.98466
 Alpha virt. eigenvalues --    0.99229   1.00758   1.01272   1.01801   1.02738
 Alpha virt. eigenvalues --    1.03273   1.04479   1.05002   1.06013   1.06498
 Alpha virt. eigenvalues --    1.07239   1.07988   1.08745   1.09072   1.10061
 Alpha virt. eigenvalues --    1.10504   1.11370   1.12309   1.13002   1.13713
 Alpha virt. eigenvalues --    1.14620   1.15148   1.15985   1.16860   1.17438
 Alpha virt. eigenvalues --    1.17917   1.18403   1.19649   1.20103   1.20895
 Alpha virt. eigenvalues --    1.21458   1.22562   1.22634   1.24280   1.25680
 Alpha virt. eigenvalues --    1.25957   1.26299   1.27695   1.27930   1.28344
 Alpha virt. eigenvalues --    1.29274   1.30561   1.31480   1.31635   1.32947
 Alpha virt. eigenvalues --    1.33142   1.33720   1.34394   1.35362   1.35801
 Alpha virt. eigenvalues --    1.36606   1.37165   1.37486   1.38928   1.39259
 Alpha virt. eigenvalues --    1.41316   1.41582   1.43267   1.44377   1.45582
 Alpha virt. eigenvalues --    1.48301   1.49254   1.50105   1.50451   1.51801
 Alpha virt. eigenvalues --    1.52353   1.53510   1.54493   1.55050   1.56760
 Alpha virt. eigenvalues --    1.58504   1.58819   1.59073   1.60707   1.62059
 Alpha virt. eigenvalues --    1.62319   1.64017   1.65250   1.66043   1.67793
 Alpha virt. eigenvalues --    1.69021   1.70205   1.70754   1.73222   1.73553
 Alpha virt. eigenvalues --    1.74356   1.75360   1.76167   1.77927   1.79110
 Alpha virt. eigenvalues --    1.80378   1.82650   1.84512   1.86906   1.87686
 Alpha virt. eigenvalues --    1.89784   1.91413   1.91947   1.92880   1.93394
 Alpha virt. eigenvalues --    1.93661   1.95097   1.97195   1.98099   1.99259
 Alpha virt. eigenvalues --    2.00169   2.04443   2.05984   2.06193   2.08767
 Alpha virt. eigenvalues --    2.09076   2.09988   2.13516   2.14473   2.16066
 Alpha virt. eigenvalues --    2.17625   2.18554   2.19815   2.21185   2.22716
 Alpha virt. eigenvalues --    2.23797   2.25831   2.26486   2.26868   2.28713
 Alpha virt. eigenvalues --    2.30385   2.31456   2.32789   2.33912   2.35106
 Alpha virt. eigenvalues --    2.35605   2.36158   2.37812   2.38767   2.39907
 Alpha virt. eigenvalues --    2.40382   2.41163   2.43134   2.44170   2.45721
 Alpha virt. eigenvalues --    2.48038   2.49054   2.49198   2.49708   2.51444
 Alpha virt. eigenvalues --    2.52285   2.53543   2.54726   2.57717   2.59183
 Alpha virt. eigenvalues --    2.59519   2.63010   2.63347   2.64417   2.64828
 Alpha virt. eigenvalues --    2.65509   2.67340   2.68276   2.70742   2.72603
 Alpha virt. eigenvalues --    2.74968   2.77139   2.78341   2.79586   2.81168
 Alpha virt. eigenvalues --    2.81803   2.82815   2.83762   2.84717   2.85520
 Alpha virt. eigenvalues --    2.86495   2.87655   2.88917   2.89679   2.91041
 Alpha virt. eigenvalues --    2.92962   2.95526   2.98725   2.99657   3.00789
 Alpha virt. eigenvalues --    3.02683   3.03946   3.04725   3.06990   3.07351
 Alpha virt. eigenvalues --    3.08906   3.09808   3.10289   3.13951   3.16988
 Alpha virt. eigenvalues --    3.18433   3.20367   3.22896   3.24491   3.27189
 Alpha virt. eigenvalues --    3.27529   3.28671   3.29666   3.31118   3.32267
 Alpha virt. eigenvalues --    3.35465   3.35769   3.36163   3.37200   3.37817
 Alpha virt. eigenvalues --    3.39299   3.40217   3.40329   3.41904   3.42815
 Alpha virt. eigenvalues --    3.43125   3.43651   3.45354   3.47283   3.48838
 Alpha virt. eigenvalues --    3.49007   3.51205   3.52618   3.53231   3.54834
 Alpha virt. eigenvalues --    3.55955   3.57097   3.57225   3.57755   3.57825
 Alpha virt. eigenvalues --    3.58883   3.59161   3.60610   3.61422   3.61584
 Alpha virt. eigenvalues --    3.63042   3.63969   3.65869   3.67142   3.68006
 Alpha virt. eigenvalues --    3.69223   3.70754   3.72071   3.72527   3.74063
 Alpha virt. eigenvalues --    3.75093   3.76349   3.77020   3.77187   3.79276
 Alpha virt. eigenvalues --    3.80627   3.81351   3.83031   3.83565   3.84801
 Alpha virt. eigenvalues --    3.87109   3.87745   3.89013   3.90794   3.95354
 Alpha virt. eigenvalues --    3.96386   3.97702   3.98896   4.01882   4.05880
 Alpha virt. eigenvalues --    4.07968   4.08642   4.11030   4.13948   4.15940
 Alpha virt. eigenvalues --    4.21381   4.22522   4.26067   4.26444   4.30507
 Alpha virt. eigenvalues --    4.34146   4.38493   4.40290   4.40482   4.52162
 Alpha virt. eigenvalues --    4.56268   4.58390   4.59538   4.74669   4.77112
 Alpha virt. eigenvalues --    4.86211   4.98047   5.02173   5.05673   5.06610
 Alpha virt. eigenvalues --    5.08120   5.12871   5.17393   5.19431   5.24874
 Alpha virt. eigenvalues --    5.25958   5.37840   5.41742   5.44731   5.47246
 Alpha virt. eigenvalues --    5.57878   5.60277   5.64580   5.77122   5.85175
 Alpha virt. eigenvalues --    5.92862   6.10007   6.10577   6.75313   6.80813
 Alpha virt. eigenvalues --    6.85101   6.86009   6.92098   6.96010   6.96471
 Alpha virt. eigenvalues --    6.99403   6.99808   7.03144   7.06537   7.07149
 Alpha virt. eigenvalues --    7.08975   7.10721   7.13827   7.14399   7.20837
 Alpha virt. eigenvalues --    7.22016   7.29249   7.31382   7.35649   7.37578
 Alpha virt. eigenvalues --    7.37853   7.41972   7.52388   9.89613  23.67011
 Alpha virt. eigenvalues --   23.92468  23.95017  23.96160  23.97373  24.00597
 Alpha virt. eigenvalues --   24.01231  24.04426  24.07328  24.09499  24.13996
 Alpha virt. eigenvalues --   24.18127  24.30343  25.87436  26.28368  27.40801
 Alpha virt. eigenvalues --   35.76485  49.92002  50.00536  50.01952  50.04192
 Alpha virt. eigenvalues --   50.06936 215.89796
          Condensed to atoms (all electrons):
              1          2          3          4          5          6
     1  O    8.380111   0.381941   0.040168  -0.035411   0.032463  -0.035455
     2  C    0.381941   9.375201   0.164097  -0.395969  -0.153078   0.331013
     3  C    0.040168   0.164097   7.561085   0.226489   0.116047  -0.235047
     4  C   -0.035411  -0.395969   0.226489   7.017981   0.257227  -0.905853
     5  N    0.032463  -0.153078   0.116047   0.257227   7.303376  -0.646209
     6  C   -0.035455   0.331013  -0.235047  -0.905853  -0.646209  14.581119
     7  C    0.016006  -0.145064   0.058160  -0.140326   0.360116  -5.151442
     8  O    0.000915   0.004025  -0.005739   0.065994  -0.004560   0.098143
     9  C   -0.000571  -0.028192   0.017714  -0.191857  -0.037552   0.948616
    10  C   -0.000042  -0.002754   0.004522  -0.056918   0.012662  -0.414143
    11  O    0.000000  -0.000012  -0.000013   0.000232  -0.000005   0.013461
    12  O   -0.000024   0.000338  -0.000264  -0.003654  -0.004863   0.076885
    13  C   -0.000186  -0.276709   0.011607  -0.049155   0.470059  -3.648199
    14  C   -0.003618   0.040225   0.024378  -0.144004  -0.032578   0.917368
    15  O    0.000679  -0.064496  -0.043368   0.168617  -0.063682  -0.197013
    16  C    0.077381   0.117184   0.877079  -0.821493   0.027448  -0.563089
    17  C   -0.030807  -1.259443  -1.040050   0.263993  -0.035567   0.085025
    18  Cl   0.000208   0.066128   0.100205  -0.039330  -0.000223  -0.000999
    19  C    0.024115   0.024974  -1.288953  -0.432904   0.016637  -0.026783
    20  C   -0.439329  -2.051401  -0.617792   0.470106  -0.104119   0.119488
    21  H    0.229177   0.005796  -0.052645  -0.034427   0.047597   0.031397
    22  H    0.000635   0.012405  -0.002172   0.040303  -0.043846   0.463357
    23  H   -0.000573   0.000259  -0.001949   0.003360  -0.010023   0.058549
    24  H   -0.000842  -0.003346   0.004008   0.026484   0.000385  -0.110384
    25  H    0.000003  -0.000374   0.000069   0.004465   0.000022   0.009680
    26  H   -0.000006   0.000393  -0.000188  -0.004899  -0.002254   0.009059
    27  H    0.000000   0.000001   0.000000  -0.000114  -0.000002  -0.002576
    28  H    0.000007  -0.001727  -0.001924  -0.000315   0.008652  -0.060018
    29  H    0.000215  -0.005567  -0.000037   0.014275  -0.006668   0.000683
    30  H    0.000003   0.000372   0.002215  -0.001671   0.000650  -0.013790
    31  H    0.000005  -0.000398  -0.000022  -0.003440   0.000981  -0.047975
    32  H   -0.000562   0.018117  -0.013862  -0.008771  -0.000789   0.004238
    33  H   -0.000679   0.034672  -0.011217  -0.000796  -0.000008   0.000079
    34  H    0.002479  -0.210998  -0.002080   0.007499   0.000287   0.000207
              7          8          9         10         11         12
     1  O    0.016006   0.000915  -0.000571  -0.000042   0.000000  -0.000024
     2  C   -0.145064   0.004025  -0.028192  -0.002754  -0.000012   0.000338
     3  C    0.058160  -0.005739   0.017714   0.004522  -0.000013  -0.000264
     4  C   -0.140326   0.065994  -0.191857  -0.056918   0.000232  -0.003654
     5  N    0.360116  -0.004560  -0.037552   0.012662  -0.000005  -0.004863
     6  C   -5.151442   0.098143   0.948616  -0.414143   0.013461   0.076885
     7  C    9.883915   0.092620  -0.913033   0.337203  -0.068077  -0.090622
     8  O    0.092620   8.184100  -0.044637  -0.004951   0.000007   0.012557
     9  C   -0.913033  -0.044637   6.115833  -0.022496   0.108872   0.015220
    10  C    0.337203  -0.004951  -0.022496   5.091020   0.175714   0.351349
    11  O   -0.068077   0.000007   0.108872   0.175714   8.001151  -0.075364
    12  O   -0.090622   0.012557   0.015220   0.351349  -0.075364   8.278053
    13  C    1.653831  -0.133035  -0.330443   0.051291   0.006189  -0.010765
    14  C   -0.620272   0.046117   0.090645  -0.028606  -0.001885   0.001885
    15  O    0.057518  -0.001086   0.012719  -0.000282  -0.000011   0.000004
    16  C    0.065300   0.006432   0.018153  -0.000589   0.000009  -0.000040
    17  C   -0.010769  -0.000559   0.005717  -0.000086   0.000001  -0.000001
    18  Cl   0.000258   0.000004   0.000013   0.000001   0.000000   0.000000
    19  C   -0.006901   0.000388   0.000711  -0.000049   0.000000   0.000001
    20  C   -0.011277  -0.000239  -0.010226  -0.000450   0.000000  -0.000005
    21  H   -0.008147  -0.001653  -0.001016  -0.000037   0.000000   0.000009
    22  H   -0.091223   0.007507   0.000445  -0.002688   0.000098   0.000172
    23  H    0.418483  -0.053368  -0.069639  -0.013443   0.000104   0.005464
    24  H    0.085564   0.274413  -0.004783   0.000279   0.000134  -0.000977
    25  H   -0.075022   0.007854   0.440641  -0.043256   0.005397  -0.003990
    26  H   -0.007297  -0.006410   0.386764  -0.019574   0.000214   0.001060
    27  H    0.014444  -0.000030  -0.046929   0.024013   0.268585   0.016461
    28  H    0.008456  -0.000402   0.000176  -0.002319  -0.000036  -0.000011
    29  H   -0.001562  -0.006060  -0.000353   0.000362   0.000019  -0.000009
    30  H    0.006332   0.001981   0.002144   0.000293   0.000003   0.000001
    31  H    0.033733  -0.003519  -0.008685   0.000184  -0.000257   0.000049
    32  H   -0.001016   0.000000   0.000075   0.000004   0.000000   0.000000
    33  H   -0.000005   0.000000   0.000000   0.000000   0.000000   0.000000
    34  H   -0.000021   0.000000  -0.000003   0.000000   0.000000   0.000000
             13         14         15         16         17         18
     1  O   -0.000186  -0.003618   0.000679   0.077381  -0.030807   0.000208
     2  C   -0.276709   0.040225  -0.064496   0.117184  -1.259443   0.066128
     3  C    0.011607   0.024378  -0.043368   0.877079  -1.040050   0.100205
     4  C   -0.049155  -0.144004   0.168617  -0.821493   0.263993  -0.039330
     5  N    0.470059  -0.032578  -0.063682   0.027448  -0.035567  -0.000223
     6  C   -3.648199   0.917368  -0.197013  -0.563089   0.085025  -0.000999
     7  C    1.653831  -0.620272   0.057518   0.065300  -0.010769   0.000258
     8  O   -0.133035   0.046117  -0.001086   0.006432  -0.000559   0.000004
     9  C   -0.330443   0.090645   0.012719   0.018153   0.005717   0.000013
    10  C    0.051291  -0.028606  -0.000282  -0.000589  -0.000086   0.000001
    11  O    0.006189  -0.001885  -0.000011   0.000009   0.000001   0.000000
    12  O   -0.010765   0.001885   0.000004  -0.000040  -0.000001   0.000000
    13  C    7.968370  -0.460658   0.301467   0.173021  -0.019839   0.000220
    14  C   -0.460658   5.695269  -0.146298  -0.059322  -0.018279  -0.000255
    15  O    0.301467  -0.146298   8.370813   0.034418   0.068888   0.000152
    16  C    0.173021  -0.059322   0.034418   8.619191   0.188000   0.213806
    17  C   -0.019839  -0.018279   0.068888   0.188000   9.005553  -0.690297
    18  Cl   0.000220  -0.000255   0.000152   0.213806  -0.690297  17.089983
    19  C   -0.012718   0.004638  -0.002499  -0.553788  -1.556813   0.314089
    20  C   -0.039997  -0.009420   0.003882  -1.886635   0.125405   0.041350
    21  H   -0.002561   0.001976   0.002529  -0.031398   0.004920  -0.000036
    22  H   -0.084424   0.013105   0.000423  -0.001951  -0.001219   0.000004
    23  H   -0.032055   0.002997  -0.000353   0.000321   0.000055   0.000000
    24  H    0.013317  -0.004601  -0.000078   0.005550  -0.000076   0.000001
    25  H   -0.000500   0.003075  -0.000126   0.000164   0.000005   0.000000
    26  H   -0.015708  -0.004624   0.000281  -0.000293  -0.000006   0.000000
    27  H   -0.000415   0.000019  -0.000001  -0.000001   0.000000   0.000000
    28  H    0.483721  -0.069334  -0.033293   0.006690   0.001254   0.000013
    29  H   -0.040052   0.429127  -0.003460   0.000820   0.000146  -0.000006
    30  H   -0.016274   0.397598  -0.000006  -0.001059  -0.001439  -0.000002
    31  H    0.002054   0.381892   0.010119   0.000931   0.000160   0.000000
    32  H    0.000866   0.000044   0.006403   0.400729  -0.078624  -0.008782
    33  H   -0.000019   0.000000  -0.000007   0.019381  -0.071788  -0.003966
    34  H   -0.000091   0.000004   0.000008  -0.029676   0.057865  -0.001033
             19         20         21         22         23         24
     1  O    0.024115  -0.439329   0.229177   0.000635  -0.000573  -0.000842
     2  C    0.024974  -2.051401   0.005796   0.012405   0.000259  -0.003346
     3  C   -1.288953  -0.617792  -0.052645  -0.002172  -0.001949   0.004008
     4  C   -0.432904   0.470106  -0.034427   0.040303   0.003360   0.026484
     5  N    0.016637  -0.104119   0.047597  -0.043846  -0.010023   0.000385
     6  C   -0.026783   0.119488   0.031397   0.463357   0.058549  -0.110384
     7  C   -0.006901  -0.011277  -0.008147  -0.091223   0.418483   0.085564
     8  O    0.000388  -0.000239  -0.001653   0.007507  -0.053368   0.274413
     9  C    0.000711  -0.010226  -0.001016   0.000445  -0.069639  -0.004783
    10  C   -0.000049  -0.000450  -0.000037  -0.002688  -0.013443   0.000279
    11  O    0.000000   0.000000   0.000000   0.000098   0.000104   0.000134
    12  O    0.000001  -0.000005   0.000009   0.000172   0.005464  -0.000977
    13  C   -0.012718  -0.039997  -0.002561  -0.084424  -0.032055   0.013317
    14  C    0.004638  -0.009420   0.001976   0.013105   0.002997  -0.004601
    15  O   -0.002499   0.003882   0.002529   0.000423  -0.000353  -0.000078
    16  C   -0.553788  -1.886635  -0.031398  -0.001951   0.000321   0.005550
    17  C   -1.556813   0.125405   0.004920  -0.001219   0.000055  -0.000076
    18  Cl   0.314089   0.041350  -0.000036   0.000004   0.000000   0.000001
    19  C    9.972926  -0.194751  -0.005824   0.000298  -0.000004   0.000157
    20  C   -0.194751  10.070193   0.084169   0.001170   0.000244  -0.001618
    21  H   -0.005824   0.084169   0.259873  -0.001095   0.000801  -0.000049
    22  H    0.000298   0.001170  -0.001095   0.570809  -0.007039  -0.000022
    23  H   -0.000004   0.000244   0.000801  -0.007039   0.576797  -0.006254
    24  H    0.000157  -0.001618  -0.000049  -0.000022  -0.006254   0.389368
    25  H    0.000000  -0.000015  -0.000004   0.002709  -0.003322  -0.000439
    26  H   -0.000002   0.000031   0.000006   0.000496   0.006778   0.000162
    27  H    0.000000   0.000000   0.000000   0.000000   0.000014   0.000001
    28  H    0.000002  -0.000136  -0.000017  -0.010867  -0.000230  -0.000010
    29  H   -0.000218  -0.000911  -0.000165  -0.000134  -0.000204  -0.000547
    30  H   -0.000069   0.000035   0.000002  -0.000104   0.000056  -0.000061
    31  H   -0.000030   0.000012  -0.000010  -0.000026  -0.000003  -0.000039
    32  H    0.017700  -0.001196   0.000068  -0.000011   0.000000   0.000000
    33  H    0.419921  -0.048796   0.000018   0.000000   0.000000   0.000000
    34  H   -0.093519   0.620292   0.000831   0.000000   0.000000   0.000000
             25         26         27         28         29         30
     1  O    0.000003  -0.000006   0.000000   0.000007   0.000215   0.000003
     2  C   -0.000374   0.000393   0.000001  -0.001727  -0.005567   0.000372
     3  C    0.000069  -0.000188   0.000000  -0.001924  -0.000037   0.002215
     4  C    0.004465  -0.004899  -0.000114  -0.000315   0.014275  -0.001671
     5  N    0.000022  -0.002254  -0.000002   0.008652  -0.006668   0.000650
     6  C    0.009680   0.009059  -0.002576  -0.060018   0.000683  -0.013790
     7  C   -0.075022  -0.007297   0.014444   0.008456  -0.001562   0.006332
     8  O    0.007854  -0.006410  -0.000030  -0.000402  -0.006060   0.001981
     9  C    0.440641   0.386764  -0.046929   0.000176  -0.000353   0.002144
    10  C   -0.043256  -0.019574   0.024013  -0.002319   0.000362   0.000293
    11  O    0.005397   0.000214   0.268585  -0.000036   0.000019   0.000003
    12  O   -0.003990   0.001060   0.016461  -0.000011  -0.000009   0.000001
    13  C   -0.000500  -0.015708  -0.000415   0.483721  -0.040052  -0.016274
    14  C    0.003075  -0.004624   0.000019  -0.069334   0.429127   0.397598
    15  O   -0.000126   0.000281  -0.000001  -0.033293  -0.003460  -0.000006
    16  C    0.000164  -0.000293  -0.000001   0.006690   0.000820  -0.001059
    17  C    0.000005  -0.000006   0.000000   0.001254   0.000146  -0.001439
    18  Cl   0.000000   0.000000   0.000000   0.000013  -0.000006  -0.000002
    19  C    0.000000  -0.000002   0.000000   0.000002  -0.000218  -0.000069
    20  C   -0.000015   0.000031   0.000000  -0.000136  -0.000911   0.000035
    21  H   -0.000004   0.000006   0.000000  -0.000017  -0.000165   0.000002
    22  H    0.002709   0.000496   0.000000  -0.010867  -0.000134  -0.000104
    23  H   -0.003322   0.006778   0.000014  -0.000230  -0.000204   0.000056
    24  H   -0.000439   0.000162   0.000001  -0.000010  -0.000547  -0.000061
    25  H    0.499272  -0.028441  -0.000621  -0.000103  -0.000021  -0.000010
    26  H   -0.028441   0.516258   0.000525  -0.001001  -0.000031   0.000073
    27  H   -0.000621   0.000525   0.377001   0.000000   0.000000   0.000000
    28  H   -0.000103  -0.001001   0.000000   0.541259   0.005782  -0.007058
    29  H   -0.000021  -0.000031   0.000000   0.005782   0.517960  -0.031014
    30  H   -0.000010   0.000073   0.000000  -0.007058  -0.031014   0.536423
    31  H    0.000137   0.005248   0.000000  -0.001861  -0.025465  -0.023534
    32  H    0.000000   0.000000   0.000000   0.000027   0.000018  -0.000035
    33  H    0.000000   0.000000   0.000000   0.000000   0.000000   0.000000
    34  H    0.000000   0.000000   0.000000   0.000000   0.000000   0.000000
             31         32         33         34
     1  O    0.000005  -0.000562  -0.000679   0.002479
     2  C   -0.000398   0.018117   0.034672  -0.210998
     3  C   -0.000022  -0.013862  -0.011217  -0.002080
     4  C   -0.003440  -0.008771  -0.000796   0.007499
     5  N    0.000981  -0.000789  -0.000008   0.000287
     6  C   -0.047975   0.004238   0.000079   0.000207
     7  C    0.033733  -0.001016  -0.000005  -0.000021
     8  O   -0.003519   0.000000   0.000000   0.000000
     9  C   -0.008685   0.000075   0.000000  -0.000003
    10  C    0.000184   0.000004   0.000000   0.000000
    11  O   -0.000257   0.000000   0.000000   0.000000
    12  O    0.000049   0.000000   0.000000   0.000000
    13  C    0.002054   0.000866  -0.000019  -0.000091
    14  C    0.381892   0.000044   0.000000   0.000004
    15  O    0.010119   0.006403  -0.000007   0.000008
    16  C    0.000931   0.400729   0.019381  -0.029676
    17  C    0.000160  -0.078624  -0.071788   0.057865
    18  Cl   0.000000  -0.008782  -0.003966  -0.001033
    19  C   -0.000030   0.017700   0.419921  -0.093519
    20  C    0.000012  -0.001196  -0.048796   0.620292
    21  H   -0.000010   0.000068   0.000018   0.000831
    22  H   -0.000026  -0.000011   0.000000   0.000000
    23  H   -0.000003   0.000000   0.000000   0.000000
    24  H   -0.000039   0.000000   0.000000   0.000000
    25  H    0.000137   0.000000   0.000000   0.000000
    26  H    0.005248   0.000000   0.000000   0.000000
    27  H    0.000000   0.000000   0.000000   0.000000
    28  H   -0.001861   0.000027   0.000000   0.000000
    29  H   -0.025465   0.000018   0.000000   0.000000
    30  H   -0.023534  -0.000035   0.000000   0.000000
    31  H    0.537490  -0.000010   0.000000   0.000000
    32  H   -0.000010   0.498583  -0.000114   0.000049
    33  H    0.000000  -0.000114   0.517730  -0.004798
    34  H    0.000000   0.000049  -0.004798   0.518307
 Mulliken atomic charges:
              1
     1  O   -0.638407
     2  C    0.022385
     3  C    0.109479
     4  C    0.704283
     5  N   -0.508587
     6  C    0.310609
     7  C    0.250136
     8  O   -0.536810
     9  C   -0.454042
    10  C    0.563787
    11  O   -0.434531
    12  O   -0.568920
    13  C    0.037790
    14  C   -0.446609
    15  O   -0.482861
    16  C   -0.902675
    17  C    1.008676
    18  Cl  -0.081505
    19  C   -0.620731
    20  C   -0.118062
    21  H    0.469916
    22  H    0.132884
    23  H    0.124176
    24  H    0.334300
    25  H    0.182749
    26  H    0.163385
    27  H    0.349624
    28  H    0.134623
    29  H    0.153076
    30  H    0.147946
    31  H    0.142279
    32  H    0.166851
    33  H    0.150393
    34  H    0.134391
 Sum of Mulliken atomic charges =   0.00000
 Mulliken charges with hydrogens summed into heavy atoms:
              1
     1  O   -0.168491
     2  C    0.022385
     3  C    0.109479
     4  C    0.704283
     5  N   -0.508587
     6  C    0.443493
     7  C    0.374312
     8  O   -0.202510
     9  C   -0.107907
    10  C    0.563787
    11  O   -0.084907
    12  O   -0.568920
    13  C    0.172413
    14  C   -0.003308
    15  O   -0.482861
    16  C   -0.735824
    17  C    1.008676
    18  Cl  -0.081505
    19  C   -0.470338
    20  C    0.016329
 Sum of Mulliken charges with hydrogens summed into heavy atoms =   0.00000
 Electronic spatial extent (au):  <R**2>=           9008.7844
 Charge=              0.0000 electrons
 Dipole moment (field-independent basis, Debye):
    X=              2.6872    Y=             -3.1785    Z=             -1.7833  Tot=              4.5282
 Quadrupole moment (field-independent basis, Debye-Ang):
   XX=           -122.7038   YY=           -129.7982   ZZ=           -123.8109
   XY=            -20.1807   XZ=             -8.2627   YZ=              2.4976
 Traceless Quadrupole moment (field-independent basis, Debye-Ang):
   XX=              2.7338   YY=             -4.3606   ZZ=              1.6267
   XY=            -20.1807   XZ=             -8.2627   YZ=              2.4976
 Octapole moment (field-independent basis, Debye-Ang**2):
  XXX=            180.2601  YYY=            -28.7733  ZZZ=             -4.1870  XYY=            -15.9041
  XXY=            -10.1922  XXZ=             -9.1656  XZZ=             26.8286  YZZ=             -1.0886
  YYZ=              4.1447  XYZ=             -1.5025
 Hexadecapole moment (field-independent basis, Debye-Ang**3):
 XXXX=          -8806.4650 YYYY=          -1439.1725 ZZZZ=           -333.0197 XXXY=           -516.6125
 XXXZ=             11.0315 YYYX=            -35.3270 YYYZ=             15.5241 ZZZX=            -10.8524
 ZZZY=             14.4849 XXYY=          -2023.5528 XXZZ=          -1745.2487 YYZZ=           -295.0071
 XXYZ=             18.1859 YYXZ=             -7.6854 ZZXY=             13.4325
 N-N= 1.661337019856D+03 E-N=-6.602413791184D+03  KE= 1.390568316770D+03
 1\1\GINC-PROD2-0124\SP\RB3LYP\6-311+G(2d,p)\C13H14Cl1N1O5\YUHENG\26-Ma
 r-2019\0\\# b3lyp/6-311+G(2d,p) nmr guess=read geom=check integral(ult
 rafinegrid) scrf=(iefpcm,read,solvent=methanol)\\Candidate Structure: 
 1b, Conformer: 12, NMR calculation with methanol solvation\\0,1\O,0,-1
 .3069591896,2.6331023144,-0.0524832412\C,0,-2.2640576073,1.6922718009,
 -0.0253107483\C,0,-1.9865009412,0.3174934715,-0.1724656725\C,0,-0.6069
 834706,-0.1196648292,-0.3808317882\N,0,0.4085473231,0.664136146,-0.415
 1785785\C,0,1.5682599149,-0.1716784368,-0.7603880361\C,0,2.8370035119,
 0.3586264439,-0.0897126135\O,0,2.7436819891,0.3874665537,1.3207002946\
 C,0,4.0618430947,-0.4635263632,-0.4504692432\C,0,5.3431565574,0.236163
 2852,-0.0630510857\O,0,6.3474187674,-0.6298807318,0.1135406427\O,0,5.4
 804971827,1.4341635043,0.0430278699\C,0,1.0709557629,-1.6035794045,-0.
 4479159658\C,0,1.3295748528,-2.1769555017,0.9353525518\O,0,-0.37805148
 87,-1.4323972988,-0.5697407353\C,0,-3.026684492,-0.6204089866,-0.12541
 51597\C,0,-4.3257380955,-0.1866519553,0.0628507287\Cl,0,-5.6273240432,
 -1.3538800389,0.1221513193\C,0,-4.6159577307,1.1723588354,0.2072399246
 \C,0,-3.5898586699,2.1027339178,0.1625421349\H,0,-0.4281742257,2.19205
 88068,-0.1866580461\H,0,1.7251244605,-0.0822892312,-1.846645501\H,0,2.
 9831522744,1.3781799304,-0.474758496\H,0,2.0522701287,1.022720721,1.57
 35790487\H,0,4.1040773014,-0.6250600596,-1.5354640989\H,0,4.0426498786
 ,-1.4489099879,0.0226745153\H,0,7.1659953569,-0.1318453509,0.320573063
 9\H,0,1.3664605023,-2.3083113543,-1.2286506608\H,0,0.9715274438,-1.496
 146378,1.7104366686\H,0,0.8039509496,-3.1312352318,1.0217202761\H,0,2.
 3940485998,-2.3468193801,1.1059150973\H,0,-2.8020102356,-1.676794489,-
 0.2378789864\H,0,-5.6424836908,1.4955395286,0.3550596313\H,0,-3.794685
 4832,3.1631917157,0.2748662999\\Version=EM64L-G09RevB.01\State=1-A\HF=
 -1395.2556037\RMSD=1.499e-09\Dipole=1.0572273,-1.2505337,-0.7015907\Qu
 adrupole=2.0325445,-3.2419654,1.2094209,-15.0038561,-6.1430832,1.85690
 16\PG=C01 [X(C13H14Cl1N1O5)]\\@


 I LOVE THOSE WHO LONG FOR THE IMPOSSIBLE.

                                 -- GOETHE
 Job cpu time:  0 days  2 hours 34 minutes 44.5 seconds.
 File lengths (MBytes):  RWF=    332 Int=      0 D2E=      0 Chk=     32 Scr=      1
 Normal termination of Gaussian 09 at Tue Mar 26 02:55:21 2019.
