 Entering Gaussian System, Link 0=g09
 Initial command:
 /home/yuheng/proj/yuheng/g09/l1.exe /home/yuheng/proj/yuheng/g09_scratch/Gau-167510.inp -scrdir=/home/yuheng/proj/yuheng/g09_scratch/
 Entering Link 1 = /home/yuheng/proj/yuheng/g09/l1.exe PID=    167511.
  
 Copyright (c) 1988,1990,1992,1993,1995,1998,2003,2009,2010,
            Gaussian, Inc.  All Rights Reserved.
  
 This is part of the Gaussian(R) 09 program.  It is based on
 the Gaussian(R) 03 system (copyright 2003, Gaussian, Inc.),
 the Gaussian(R) 98 system (copyright 1998, Gaussian, Inc.),
 the Gaussian(R) 94 system (copyright 1995, Gaussian, Inc.),
 the Gaussian 92(TM) system (copyright 1992, Gaussian, Inc.),
 the Gaussian 90(TM) system (copyright 1990, Gaussian, Inc.),
 the Gaussian 88(TM) system (copyright 1988, Gaussian, Inc.),
 the Gaussian 86(TM) system (copyright 1986, Carnegie Mellon
 University), and the Gaussian 82(TM) system (copyright 1983,
 Carnegie Mellon University). Gaussian is a federally registered
 trademark of Gaussian, Inc.
  
 This software contains proprietary and confidential information,
 including trade secrets, belonging to Gaussian, Inc.
  
 This software is provided under written license and may be
 used, copied, transmitted, or stored only in accord with that
 written license.
  
 The following legend is applicable only to US Government
 contracts under FAR:
  
                    RESTRICTED RIGHTS LEGEND
  
 Use, reproduction and disclosure by the US Government is
 subject to restrictions as set forth in subparagraphs (a)
 and (c) of the Commercial Computer Software - Restricted
 Rights clause in FAR 52.227-19.
  
 Gaussian, Inc.
 340 Quinnipiac St., Bldg. 40, Wallingford CT 06492
  
  
 ---------------------------------------------------------------
 Warning -- This program may not be used in any manner that
 competes with the business of Gaussian, Inc. or will provide
 assistance to any competitor of Gaussian, Inc.  The licensee
 of this program is prohibited from giving any competitor of
 Gaussian, Inc. access to this program.  By using this program,
 the user acknowledges that Gaussian, Inc. is engaged in the
 business of creating and licensing software in the field of
 computational chemistry and represents and warrants to the
 licensee that it is not a competitor of Gaussian, Inc. and that
 it will not use this program in any manner prohibited above.
 ---------------------------------------------------------------
  

 Cite this work as:
 Gaussian 09, Revision B.01,
 M. J. Frisch, G. W. Trucks, H. B. Schlegel, G. E. Scuseria, 
 M. A. Robb, J. R. Cheeseman, G. Scalmani, V. Barone, B. Mennucci, 
 G. A. Petersson, H. Nakatsuji, M. Caricato, X. Li, H. P. Hratchian, 
 A. F. Izmaylov, J. Bloino, G. Zheng, J. L. Sonnenberg, M. Hada, 
 M. Ehara, K. Toyota, R. Fukuda, J. Hasegawa, M. Ishida, T. Nakajima, 
 Y. Honda, O. Kitao, H. Nakai, T. Vreven, J. A. Montgomery, Jr., 
 J. E. Peralta, F. Ogliaro, M. Bearpark, J. J. Heyd, E. Brothers, 
 K. N. Kudin, V. N. Staroverov, T. Keith, R. Kobayashi, J. Normand, 
 K. Raghavachari, A. Rendell, J. C. Burant, S. S. Iyengar, J. Tomasi, 
 M. Cossi, N. Rega, J. M. Millam, M. Klene, J. E. Knox, J. B. Cross, 
 V. Bakken, C. Adamo, J. Jaramillo, R. Gomperts, R. E. Stratmann, 
 O. Yazyev, A. J. Austin, R. Cammi, C. Pomelli, J. W. Ochterski, 
 R. L. Martin, K. Morokuma, V. G. Zakrzewski, G. A. Voth, 
 P. Salvador, J. J. Dannenberg, S. Dapprich, A. D. Daniels, 
 O. Farkas, J. B. Foresman, J. V. Ortiz, J. Cioslowski, 
 and D. J. Fox, Gaussian, Inc., Wallingford CT, 2010.
 
 ******************************************
 Gaussian 09:  EM64L-G09RevB.01 12-Aug-2010
                22-Mar-2019 
 ******************************************
 %mem=16gb
 %nprocshared=20
 Will use up to   20 processors via shared memory.
 %chk=1b-conf-14.chk
 ----------------------------------------------------------------------
 # m062x/6-31+G(d,p) opt freq=noraman integral(ultrafinegrid) scrf=(ief
 pcm,read,solvent=methanol)
 ----------------------------------------------------------------------
 1/14=-1,18=20,19=15,26=3,38=1,40=2/1,3;
 2/9=110,12=2,17=6,18=5,40=1/2;
 3/5=1,6=6,7=111,11=2,16=1,25=1,30=1,70=2203,71=1,72=3,74=-55,75=-5/1,2,3;
 4//1;
 5/5=2,38=5,53=3/2;
 6/7=2,8=2,9=2,10=2,28=1/1;
 7//1,2,3,16;
 1/14=-1,18=20,19=15/3(2);
 2/9=110/2;
 99//99;
 2/9=110/2;
 3/5=1,6=6,7=111,11=2,16=1,25=1,30=1,70=2205,71=1,72=3,74=-55,75=-5/1,2,3;
 4/5=5,16=3/1;
 5/5=2,38=5,53=3/2;
 7//1,2,3,16;
 1/14=-1,18=20,19=15/3(-5);
 2/9=110/2;
 6/7=2,8=2,9=2,10=2,19=2,28=1/1;
 99/9=1/99;
 ----------------------------------------------------------------------
 Candidate Structure: 1b, Conformer: 14 geometry optimization and frequ
 ency calculation with methanol solvation
 ----------------------------------------------------------------------
 Symbolic Z-matrix:
 Charge =  0 Multiplicity = 1
 O                    -0.03842   0.41217  -0.2661 
 C                    -0.8828    1.48827  -0.22238 
 C                    -0.81112   2.57262  -1.13975 
 C                     0.15149   2.59528  -2.26672 
 N                     0.67789   3.66174  -2.71541 
 C                     1.62902   3.28511  -3.72917 
 C                     3.07535   3.56018  -3.20702 
 O                     3.17023   4.97215  -3.24123 
 C                     3.44178   3.16885  -1.74534 
 C                     3.54327   1.67119  -1.45779 
 O                     4.73844   1.15431  -1.84539 
 O                     2.64802   1.0179   -0.9279 
 C                     1.2077    1.85515  -4.10412 
 C                     2.27252   0.87038  -4.61073 
 O                     0.53641   1.46104  -2.92917 
 C                    -1.68607   3.6716   -0.98455 
 C                    -2.63843   3.68593   0.05031 
 Cl                   -3.7058    5.03015   0.2216 
 C                    -2.72357   2.60178   0.94227 
 C                    -1.84754   1.50864   0.80494 
 H                     0.79459   0.57673  -0.704 
 H                     1.47338   3.89234  -4.62426 
 H                     3.81509   3.15359  -3.89832 
 H                     2.35301   5.29287  -2.87582 
 H                     2.73729   3.60399  -1.03624 
 H                     4.40861   3.60687  -1.49405 
 H                     4.7796    0.23647  -1.62355 
 H                     0.44221   1.92287  -4.8806 
 H                     3.04805   0.6605   -3.88204 
 H                     1.81188  -0.08305  -4.86964 
 H                     2.75649   1.2537   -5.50922 
 H                    -1.63617   4.50634  -1.66884 
 H                    -3.45638   2.61153   1.73565 
 H                    -1.90814   0.68405   1.50041 
 

 GradGradGradGradGradGradGradGradGradGradGradGradGradGradGradGradGradGrad
 Berny optimization.
 Initialization pass.
                           ----------------------------
                           !    Initial Parameters    !
                           ! (Angstroms and Degrees)  !
 --------------------------                            --------------------------
 ! Name  Definition              Value          Derivative Info.                !
 --------------------------------------------------------------------------------
 ! R1    R(1,2)                  1.3685         estimate D2E/DX2                !
 ! R2    R(1,21)                 0.9554         estimate D2E/DX2                !
 ! R3    R(2,3)                  1.4222         estimate D2E/DX2                !
 ! R4    R(2,20)                 1.4094         estimate D2E/DX2                !
 ! R5    R(3,4)                  1.4823         estimate D2E/DX2                !
 ! R6    R(3,16)                 1.4133         estimate D2E/DX2                !
 ! R7    R(4,5)                  1.2711         estimate D2E/DX2                !
 ! R8    R(4,15)                 1.3688         estimate D2E/DX2                !
 ! R9    R(5,6)                  1.4402         estimate D2E/DX2                !
 ! R10   R(6,7)                  1.5621         estimate D2E/DX2                !
 ! R11   R(6,13)                 1.5372         estimate D2E/DX2                !
 ! R12   R(6,22)                 1.0928         estimate D2E/DX2                !
 ! R13   R(7,8)                  1.4156         estimate D2E/DX2                !
 ! R14   R(7,9)                  1.5569         estimate D2E/DX2                !
 ! R15   R(7,23)                 1.0911         estimate D2E/DX2                !
 ! R16   R(8,24)                 0.9509         estimate D2E/DX2                !
 ! R17   R(9,10)                 1.5284         estimate D2E/DX2                !
 ! R18   R(9,25)                 1.0902         estimate D2E/DX2                !
 ! R19   R(9,26)                 1.0908         estimate D2E/DX2                !
 ! R20   R(10,11)                1.3586         estimate D2E/DX2                !
 ! R21   R(10,12)                1.2284         estimate D2E/DX2                !
 ! R22   R(11,27)                0.9452         estimate D2E/DX2                !
 ! R23   R(12,21)                1.9183         estimate D2E/DX2                !
 ! R24   R(13,14)                1.5363         estimate D2E/DX2                !
 ! R25   R(13,15)                1.4094         estimate D2E/DX2                !
 ! R26   R(13,28)                1.0925         estimate D2E/DX2                !
 ! R27   R(14,29)                1.0847         estimate D2E/DX2                !
 ! R28   R(14,30)                1.0901         estimate D2E/DX2                !
 ! R29   R(14,31)                1.0902         estimate D2E/DX2                !
 ! R30   R(16,17)                1.4065         estimate D2E/DX2                !
 ! R31   R(16,32)                1.0805         estimate D2E/DX2                !
 ! R32   R(17,18)                1.725          estimate D2E/DX2                !
 ! R33   R(17,19)                1.4065         estimate D2E/DX2                !
 ! R34   R(19,20)                1.4076         estimate D2E/DX2                !
 ! R35   R(19,33)                1.0801         estimate D2E/DX2                !
 ! R36   R(20,34)                1.0804         estimate D2E/DX2                !
 ! A1    A(2,1,21)             114.656          estimate D2E/DX2                !
 ! A2    A(1,2,3)              123.219          estimate D2E/DX2                !
 ! A3    A(1,2,20)             117.1918         estimate D2E/DX2                !
 ! A4    A(3,2,20)             119.5809         estimate D2E/DX2                !
 ! A5    A(2,3,4)              122.3316         estimate D2E/DX2                !
 ! A6    A(2,3,16)             119.3973         estimate D2E/DX2                !
 ! A7    A(4,3,16)             118.2708         estimate D2E/DX2                !
 ! A8    A(3,4,5)              123.376          estimate D2E/DX2                !
 ! A9    A(3,4,15)             122.5421         estimate D2E/DX2                !
 ! A10   A(5,4,15)             114.0757         estimate D2E/DX2                !
 ! A11   A(4,5,6)              107.6109         estimate D2E/DX2                !
 ! A12   A(5,6,7)              109.2766         estimate D2E/DX2                !
 ! A13   A(5,6,13)             103.5304         estimate D2E/DX2                !
 ! A14   A(5,6,22)             109.7054         estimate D2E/DX2                !
 ! A15   A(7,6,13)             119.9416         estimate D2E/DX2                !
 ! A16   A(7,6,22)             107.9273         estimate D2E/DX2                !
 ! A17   A(13,6,22)            106.1467         estimate D2E/DX2                !
 ! A18   A(6,7,8)              103.2748         estimate D2E/DX2                !
 ! A19   A(6,7,9)              119.1743         estimate D2E/DX2                !
 ! A20   A(6,7,23)             110.5081         estimate D2E/DX2                !
 ! A21   A(8,7,9)              104.9298         estimate D2E/DX2                !
 ! A22   A(8,7,23)             108.1167         estimate D2E/DX2                !
 ! A23   A(9,7,23)             109.9749         estimate D2E/DX2                !
 ! A24   A(7,8,24)             105.6367         estimate D2E/DX2                !
 ! A25   A(7,9,10)             116.0123         estimate D2E/DX2                !
 ! A26   A(7,9,25)             110.9926         estimate D2E/DX2                !
 ! A27   A(7,9,26)             108.9028         estimate D2E/DX2                !
 ! A28   A(10,9,25)            108.1593         estimate D2E/DX2                !
 ! A29   A(10,9,26)            106.9358         estimate D2E/DX2                !
 ! A30   A(25,9,26)            105.2279         estimate D2E/DX2                !
 ! A31   A(9,10,11)            112.1812         estimate D2E/DX2                !
 ! A32   A(9,10,12)            123.6335         estimate D2E/DX2                !
 ! A33   A(11,10,12)           124.1831         estimate D2E/DX2                !
 ! A34   A(10,11,27)           109.9254         estimate D2E/DX2                !
 ! A35   A(6,13,14)            119.1278         estimate D2E/DX2                !
 ! A36   A(6,13,15)            100.7966         estimate D2E/DX2                !
 ! A37   A(6,13,28)            107.9241         estimate D2E/DX2                !
 ! A38   A(14,13,15)           115.1998         estimate D2E/DX2                !
 ! A39   A(14,13,28)           106.9182         estimate D2E/DX2                !
 ! A40   A(15,13,28)           106.0286         estimate D2E/DX2                !
 ! A41   A(13,14,29)           113.4571         estimate D2E/DX2                !
 ! A42   A(13,14,30)           110.2479         estimate D2E/DX2                !
 ! A43   A(13,14,31)           110.7374         estimate D2E/DX2                !
 ! A44   A(29,14,30)           107.0059         estimate D2E/DX2                !
 ! A45   A(29,14,31)           107.7172         estimate D2E/DX2                !
 ! A46   A(30,14,31)           107.4207         estimate D2E/DX2                !
 ! A47   A(4,15,13)            107.7996         estimate D2E/DX2                !
 ! A48   A(3,16,17)            120.5257         estimate D2E/DX2                !
 ! A49   A(3,16,32)            120.1718         estimate D2E/DX2                !
 ! A50   A(17,16,32)           119.2992         estimate D2E/DX2                !
 ! A51   A(16,17,18)           119.9999         estimate D2E/DX2                !
 ! A52   A(16,17,19)           119.9837         estimate D2E/DX2                !
 ! A53   A(18,17,19)           120.016          estimate D2E/DX2                !
 ! A54   A(17,19,20)           119.9395         estimate D2E/DX2                !
 ! A55   A(17,19,33)           119.9967         estimate D2E/DX2                !
 ! A56   A(20,19,33)           120.0627         estimate D2E/DX2                !
 ! A57   A(2,20,19)            120.5533         estimate D2E/DX2                !
 ! A58   A(2,20,34)            119.7722         estimate D2E/DX2                !
 ! A59   A(19,20,34)           119.6705         estimate D2E/DX2                !
 ! D1    D(21,1,2,3)            23.0725         estimate D2E/DX2                !
 ! D2    D(21,1,2,20)         -155.876          estimate D2E/DX2                !
 ! D3    D(1,2,3,4)              2.9631         estimate D2E/DX2                !
 ! D4    D(1,2,3,16)          -177.2356         estimate D2E/DX2                !
 ! D5    D(20,2,3,4)          -178.1124         estimate D2E/DX2                !
 ! D6    D(20,2,3,16)            1.6889         estimate D2E/DX2                !
 ! D7    D(1,2,20,19)          177.9417         estimate D2E/DX2                !
 ! D8    D(1,2,20,34)           -1.3317         estimate D2E/DX2                !
 ! D9    D(3,2,20,19)           -1.0467         estimate D2E/DX2                !
 ! D10   D(3,2,20,34)          179.6798         estimate D2E/DX2                !
 ! D11   D(2,3,4,5)           -147.3408         estimate D2E/DX2                !
 ! D12   D(2,3,4,15)            33.6198         estimate D2E/DX2                !
 ! D13   D(16,3,4,5)            32.8558         estimate D2E/DX2                !
 ! D14   D(16,3,4,15)         -146.1836         estimate D2E/DX2                !
 ! D15   D(2,3,16,17)           -1.2347         estimate D2E/DX2                !
 ! D16   D(2,3,16,32)          179.4291         estimate D2E/DX2                !
 ! D17   D(4,3,16,17)          178.5747         estimate D2E/DX2                !
 ! D18   D(4,3,16,32)           -0.7616         estimate D2E/DX2                !
 ! D19   D(3,4,5,6)            175.6022         estimate D2E/DX2                !
 ! D20   D(15,4,5,6)            -5.2848         estimate D2E/DX2                !
 ! D21   D(3,4,15,13)          167.2828         estimate D2E/DX2                !
 ! D22   D(5,4,15,13)          -11.8386         estimate D2E/DX2                !
 ! D23   D(4,5,6,7)           -110.3792         estimate D2E/DX2                !
 ! D24   D(4,5,6,13)            18.5247         estimate D2E/DX2                !
 ! D25   D(4,5,6,22)           131.4802         estimate D2E/DX2                !
 ! D26   D(5,6,7,8)            -72.5579         estimate D2E/DX2                !
 ! D27   D(5,6,7,9)             43.22           estimate D2E/DX2                !
 ! D28   D(5,6,7,23)           172.0154         estimate D2E/DX2                !
 ! D29   D(13,6,7,8)           168.2672         estimate D2E/DX2                !
 ! D30   D(13,6,7,9)           -75.9549         estimate D2E/DX2                !
 ! D31   D(13,6,7,23)           52.8405         estimate D2E/DX2                !
 ! D32   D(22,6,7,8)            46.6898         estimate D2E/DX2                !
 ! D33   D(22,6,7,9)           162.4677         estimate D2E/DX2                !
 ! D34   D(22,6,7,23)          -68.7369         estimate D2E/DX2                !
 ! D35   D(5,6,13,14)         -151.1089         estimate D2E/DX2                !
 ! D36   D(5,6,13,15)          -24.0623         estimate D2E/DX2                !
 ! D37   D(5,6,13,28)           86.8607         estimate D2E/DX2                !
 ! D38   D(7,6,13,14)          -29.0724         estimate D2E/DX2                !
 ! D39   D(7,6,13,15)           97.9741         estimate D2E/DX2                !
 ! D40   D(7,6,13,28)         -151.1028         estimate D2E/DX2                !
 ! D41   D(22,6,13,14)          93.3778         estimate D2E/DX2                !
 ! D42   D(22,6,13,15)        -139.5756         estimate D2E/DX2                !
 ! D43   D(22,6,13,28)         -28.6526         estimate D2E/DX2                !
 ! D44   D(6,7,8,24)            44.3898         estimate D2E/DX2                !
 ! D45   D(9,7,8,24)           -81.1491         estimate D2E/DX2                !
 ! D46   D(23,7,8,24)          161.5141         estimate D2E/DX2                !
 ! D47   D(6,7,9,10)            70.4973         estimate D2E/DX2                !
 ! D48   D(6,7,9,25)           -53.4684         estimate D2E/DX2                !
 ! D49   D(6,7,9,26)          -168.8576         estimate D2E/DX2                !
 ! D50   D(8,7,9,10)          -174.6029         estimate D2E/DX2                !
 ! D51   D(8,7,9,25)            61.4314         estimate D2E/DX2                !
 ! D52   D(8,7,9,26)           -53.9578         estimate D2E/DX2                !
 ! D53   D(23,7,9,10)          -58.5416         estimate D2E/DX2                !
 ! D54   D(23,7,9,25)          177.4927         estimate D2E/DX2                !
 ! D55   D(23,7,9,26)           62.1035         estimate D2E/DX2                !
 ! D56   D(7,9,10,11)           80.9608         estimate D2E/DX2                !
 ! D57   D(7,9,10,12)          -99.5558         estimate D2E/DX2                !
 ! D58   D(25,9,10,11)        -153.6178         estimate D2E/DX2                !
 ! D59   D(25,9,10,12)          25.8655         estimate D2E/DX2                !
 ! D60   D(26,9,10,11)         -40.7358         estimate D2E/DX2                !
 ! D61   D(26,9,10,12)         138.7476         estimate D2E/DX2                !
 ! D62   D(9,10,11,27)         177.8561         estimate D2E/DX2                !
 ! D63   D(12,10,11,27)         -1.6239         estimate D2E/DX2                !
 ! D64   D(6,13,14,29)          62.2113         estimate D2E/DX2                !
 ! D65   D(6,13,14,30)        -177.7965         estimate D2E/DX2                !
 ! D66   D(6,13,14,31)         -59.0541         estimate D2E/DX2                !
 ! D67   D(15,13,14,29)        -57.7363         estimate D2E/DX2                !
 ! D68   D(15,13,14,30)         62.2559         estimate D2E/DX2                !
 ! D69   D(15,13,14,31)       -179.0017         estimate D2E/DX2                !
 ! D70   D(28,13,14,29)       -175.2587         estimate D2E/DX2                !
 ! D71   D(28,13,14,30)        -55.2665         estimate D2E/DX2                !
 ! D72   D(28,13,14,31)         63.4759         estimate D2E/DX2                !
 ! D73   D(6,13,15,4)           21.6816         estimate D2E/DX2                !
 ! D74   D(14,13,15,4)         151.2789         estimate D2E/DX2                !
 ! D75   D(28,13,15,4)         -90.6992         estimate D2E/DX2                !
 ! D76   D(3,16,17,18)        -179.6423         estimate D2E/DX2                !
 ! D77   D(3,16,17,19)           0.1186         estimate D2E/DX2                !
 ! D78   D(32,16,17,18)         -0.3003         estimate D2E/DX2                !
 ! D79   D(32,16,17,19)        179.4606         estimate D2E/DX2                !
 ! D80   D(16,17,19,20)          0.543          estimate D2E/DX2                !
 ! D81   D(16,17,19,33)       -179.8569         estimate D2E/DX2                !
 ! D82   D(18,17,19,20)       -179.6962         estimate D2E/DX2                !
 ! D83   D(18,17,19,33)         -0.0961         estimate D2E/DX2                !
 ! D84   D(17,19,20,2)          -0.0733         estimate D2E/DX2                !
 ! D85   D(17,19,20,34)        179.2009         estimate D2E/DX2                !
 ! D86   D(33,19,20,2)        -179.6731         estimate D2E/DX2                !
 ! D87   D(33,19,20,34)         -0.3989         estimate D2E/DX2                !
 --------------------------------------------------------------------------------
 Trust Radius=3.00D-01 FncErr=1.00D-07 GrdErr=1.00D-06
 Number of steps in this run=    192 maximum allowed number of steps=    204.
 GradGradGradGradGradGradGradGradGradGradGradGradGradGradGradGradGradGrad

                          Input orientation:                          
 ---------------------------------------------------------------------
 Center     Atomic      Atomic             Coordinates (Angstroms)
 Number     Number       Type             X           Y           Z
 ---------------------------------------------------------------------
      1          8           0       -0.038415    0.412169   -0.266095
      2          6           0       -0.882796    1.488271   -0.222379
      3          6           0       -0.811115    2.572620   -1.139746
      4          6           0        0.151488    2.595279   -2.266722
      5          7           0        0.677892    3.661737   -2.715410
      6          6           0        1.629018    3.285106   -3.729166
      7          6           0        3.075351    3.560182   -3.207018
      8          8           0        3.170226    4.972150   -3.241231
      9          6           0        3.441778    3.168845   -1.745340
     10          6           0        3.543268    1.671185   -1.457792
     11          8           0        4.738440    1.154307   -1.845392
     12          8           0        2.648022    1.017896   -0.927900
     13          6           0        1.207704    1.855149   -4.104115
     14          6           0        2.272517    0.870377   -4.610725
     15          8           0        0.536410    1.461041   -2.929165
     16          6           0       -1.686068    3.671603   -0.984551
     17          6           0       -2.638428    3.685933    0.050312
     18         17           0       -3.705804    5.030145    0.221604
     19          6           0       -2.723565    2.601781    0.942273
     20          6           0       -1.847541    1.508637    0.804939
     21          1           0        0.794585    0.576727   -0.704004
     22          1           0        1.473378    3.892344   -4.624256
     23          1           0        3.815094    3.153588   -3.898320
     24          1           0        2.353007    5.292874   -2.875822
     25          1           0        2.737287    3.603985   -1.036238
     26          1           0        4.408611    3.606870   -1.494054
     27          1           0        4.779602    0.236467   -1.623554
     28          1           0        0.442214    1.922869   -4.880599
     29          1           0        3.048046    0.660496   -3.882039
     30          1           0        1.811875   -0.083051   -4.869641
     31          1           0        2.756486    1.253704   -5.509221
     32          1           0       -1.636169    4.506342   -1.668837
     33          1           0       -3.456382    2.611527    1.735646
     34          1           0       -1.908142    0.684052    1.500410
 ---------------------------------------------------------------------
                    Distance matrix (angstroms):
                    1          2          3          4          5
     1  O    0.000000
     2  C    1.368534   0.000000
     3  C    2.455174   1.422151   0.000000
     4  C    2.967245   2.544513   1.482293   0.000000
     5  N    4.131819   3.657172   2.426115   1.271123   0.000000
     6  C    4.798642   4.672834   3.628634   2.190365   1.440206
     7  C    5.315501   5.372878   4.511486   3.219343   2.449449
     8  O    6.319829   6.138230   5.101476   3.963832   2.864507
     9  C    4.679655   4.883204   4.336972   3.380359   2.970361
    10  C    3.979160   4.598885   4.458070   3.607283   3.708676
    11  O    5.085596   5.860375   5.771231   4.826391   4.850999
    12  O    2.832284   3.631210   3.798378   3.242416   3.750533
    13  C    4.285487   4.424100   3.657578   2.244860   2.339436
    14  C    4.942284   5.440163   4.945110   3.601167   3.731855
    15  O    2.919332   3.056399   2.500690   1.368755   2.215575
    16  C    3.722210   2.448079   1.413291   2.485769   2.929894
    17  C    4.192578   2.826008   2.448423   3.787057   4.318308
    18  Cl   5.917203   4.550974   4.033848   5.196060   5.451182
    19  C    3.669412   2.446375   2.827210   4.308552   5.106081
    20  C    2.371137   1.409443   2.447047   3.822566   4.838027
    21  H    0.955370   1.968878   2.598410   2.632530   3.684652
    22  H    5.778469   5.541448   4.370628   2.997956   2.080786
    23  H    5.963050   6.193222   5.417478   4.049176   3.391095
    24  H    6.029167   5.655633   4.519448   3.534785   2.343576
    25  H    4.299457   4.271254   3.696699   3.036105   2.657830
    26  H    5.611599   5.839915   5.332987   4.443358   3.925937
    27  H    5.008678   5.965992   6.078470   5.234224   5.454232
    28  H    4.879228   4.862462   3.998374   2.714592   2.786979
    29  H    4.760563   5.434137   5.105831   3.839620   3.998262
    30  H    4.986126   5.597084   5.276815   4.087239   4.466550
    31  H    6.000835   6.422624   5.793067   4.370313   4.233740
    32  H    4.613324   3.430534   2.167933   2.684278   2.676481
    33  H    4.530634   3.423289   3.907279   5.388501   6.164987
    34  H    2.586569   2.160117   3.426453   4.699590   5.772982
                    6          7          8          9         10
     6  C    0.000000
     7  C    1.562109   0.000000
     8  O    2.336562   1.415565   0.000000
     9  C    2.689829   1.556893   2.358673   0.000000
    10  C    3.380567   2.616686   3.770436   1.528388   0.000000
    11  O    4.213955   3.226163   4.357016   2.397854   1.358614
    12  O    3.745090   3.440960   4.610892   2.434099   1.228429
    13  C    1.537163   2.683286   3.783088   3.504383   3.534364
    14  C    2.649935   3.138469   4.416553   3.854939   3.492433
    15  O    2.271785   3.306027   4.400257   3.572002   3.354146
    16  C    4.321121   5.255748   5.510682   5.208298   5.618860
    17  C    5.714561   6.578243   6.799196   6.360869   6.674350
    18  Cl   6.863969   7.739529   7.698986   7.643378   8.164069
    19  C    6.421390   7.194621   7.606387   6.749539   6.774918
    20  C    5.983345   6.673792   7.317472   6.102222   5.848692
    21  H    4.145262   4.513089   5.603654   3.848518   3.053079
    22  H    1.092771   2.164535   2.440908   3.561770   4.386854
    23  H    2.196551   1.091071   2.038330   2.185159   2.868377
    24  H    2.298584   1.906225   0.950912   2.641006   4.067451
    25  H    2.929472   2.197383   2.630837   1.090174   2.136125
    26  H    3.581256   2.171177   2.539727   1.090769   2.120615
    27  H    4.863536   4.056958   5.256773   3.225437   1.901161
    28  H    2.142427   3.523504   4.407686   4.514387   4.625526
    29  H    2.987572   2.977344   4.360725   3.318482   2.672772
    30  H    3.560702   4.199266   5.481961   4.795067   4.209012
    31  H    2.926837   3.274394   4.375134   4.278340   4.148180
    32  H    4.049422   5.045755   5.078468   5.251695   5.908403
    33  H    7.495277   8.245812   8.617063   7.746772   7.750961
    34  H    6.828283   7.434192   8.164604   6.732810   6.280387
                   11         12         13         14         15
    11  O    0.000000
    12  O    2.286973   0.000000
    13  C    4.249601   3.586621   0.000000
    14  C    3.715974   3.704857   1.536313   0.000000
    15  O    4.350368   2.942846   1.409420   2.488091   0.000000
    16  C    6.953570   5.082293   4.626565   6.055279   3.688837
    17  C    8.026270   6.001823   5.950106   7.332803   4.889481
    18  Cl   9.518395   7.602013   7.275645   8.740446   6.376694
    19  C    8.096158   5.904251   6.440370   7.667749   5.188136
    20  C    7.108090   4.842896   5.792530   6.834594   4.430465
    21  H    4.146126   1.918330   3.655925   4.187240   2.408320
    22  H    5.087196   4.827555   2.119267   3.125874   3.108452
    23  H    3.010682   3.840134   2.920065   2.846070   3.814937
    24  H    4.886698   4.707109   3.826013   4.751299   4.240969
    25  H    3.265006   2.589896   3.848366   4.523890   3.608219
    26  H    2.499458   3.181665   4.486285   4.665290   4.653823
    27  H    0.945165   2.374489   4.640234   3.951013   4.605310
    28  H    5.316082   4.616102   1.092469   2.128516   2.007549
    29  H    2.692436   3.002448   2.205305   1.084656   2.803062
    30  H    4.386561   4.177146   2.169717   1.090070   2.788634
    31  H    4.166733   4.588668   2.175956   1.090165   3.410046
    32  H    7.204370   5.574274   4.587703   6.095307   3.947453
    33  H    9.061039   6.848203   7.511898   8.725154   6.247117
    34  H    7.456043   5.173661   6.518486   7.406659   5.118660
                   16         17         18         19         20
    16  C    0.000000
    17  C    1.406462   0.000000
    18  Cl   2.716575   1.724975   0.000000
    19  C    2.435892   1.406495   2.716820   0.000000
    20  C    2.811898   2.436305   4.024232   1.407566   0.000000
    21  H    3.976255   4.692732   6.398686   4.380462   3.182168
    22  H    4.824757   6.229056   7.183375   7.089861   6.796081
    23  H    6.246693   7.584394   8.778334   8.154133   7.542675
    24  H    4.745477   6.004910   6.809718   6.898653   6.746336
    25  H    4.424174   5.485036   6.717851   5.894050   5.366662
    26  H    6.116281   7.214712   8.415042   7.603540   6.987660
    27  H    7.349379   8.350318   9.918975   8.275004   7.171821
    28  H    4.771462   6.075577   7.272805   6.662501   6.143282
    29  H    6.314589   7.546697   9.030405   7.768788   6.830364
    30  H    6.436378   7.629966   9.083520   7.845819   6.937266
    31  H    6.786395   8.119682   9.426826   8.571467   7.818611
    32  H    1.080521   2.152456   2.851583   3.409938   3.892362
    33  H    3.414271   2.159571   2.864306   1.080072   2.161238
    34  H    3.892276   3.412827   4.873957   2.157340   1.080413
                   21         22         23         24         25
    21  H    0.000000
    22  H    5.179040   0.000000
    23  H    5.095816   2.560542   0.000000
    24  H    5.421025   2.406710   2.785632   0.000000
    25  H    3.612307   3.815035   3.091284   2.526675   0.000000
    26  H    4.781959   4.300611   2.517583   2.996231   1.732896
    27  H    4.103865   5.770682   3.822883   5.746633   3.981980
    28  H    4.402296   2.237821   3.722346   4.362017   4.782533
    29  H    3.896795   3.670873   2.608474   4.791083   4.106006
    30  H    4.338516   3.997319   3.928382   5.759228   5.398667
    31  H    5.234259   3.064629   2.706513   4.838644   5.052897
    32  H    4.720312   4.333679   6.042914   4.241341   4.510160
    33  H    5.306885   8.148091   9.214650   7.886968   6.857831
    34  H    3.489369   7.696710   8.246231   7.651800   6.044882
                   26         27         28         29         30
    26  H    0.000000
    27  H    3.393232   0.000000
    28  H    5.480589   5.680249   0.000000
    29  H    4.029234   2.877298   3.062853   0.000000
    30  H    5.634993   4.409827   2.428952   1.748239   0.000000
    31  H    4.938469   4.497352   2.489739   1.756310   1.757346
    32  H    6.113834   7.706880   4.616213   6.452183   6.572418
    33  H    8.560361   9.206333   7.710253   8.813200   8.868207
    34  H    7.577008   7.394958   6.912027   7.316769   7.416503
                   31         32         33         34
    31  H    0.000000
    32  H    6.680091   0.000000
    33  H    9.640099   4.300466   0.000000
    34  H    8.439087   4.972725   2.483454   0.000000
 Stoichiometry    C13H14ClNO5
 Framework group  C1[X(C13H14ClNO5)]
 Deg. of freedom    96
 Full point group                 C1      NOp   1
 Largest Abelian subgroup         C1      NOp   1
 Largest concise Abelian subgroup C1      NOp   1
                         Standard orientation:                         
 ---------------------------------------------------------------------
 Center     Atomic      Atomic             Coordinates (Angstroms)
 Number     Number       Type             X           Y           Z
 ---------------------------------------------------------------------
      1          8           0       -0.616588    2.569463    0.279261
      2          6           0       -1.597117    1.620093    0.178537
      3          6           0       -1.351613    0.227431    0.329315
      4          6           0       -0.013385   -0.308906    0.673819
      5          7           0        0.418131   -1.430651    0.260012
      6          6           0        1.780340   -1.565530    0.707660
      7          6           0        2.738827   -1.474420   -0.522456
      8          8           0        2.535640   -2.708768   -1.184971
      9          6           0        2.479307   -0.389032   -1.608042
     10          6           0        2.756418    1.055193   -1.191634
     11          8           0        4.077051    1.365698   -1.264758
     12          8           0        1.880650    1.842457   -0.841942
     13          6           0        1.889406   -0.535270    1.843238
     14          6           0        3.250562    0.114536    2.135237
     15          8           0        0.861014    0.360234    1.486942
     16          6           0       -2.413864   -0.687558    0.150970
     17          6           0       -3.709485   -0.228707   -0.147289
     18         17           0       -4.997958   -1.356984   -0.353125
     19          6           0       -3.955211    1.150469   -0.272678
     20          6           0       -2.901345    2.069369   -0.110724
     21          1           0        0.267829    2.248047    0.114244
     22          1           0        1.920501   -2.545010    1.171472
     23          1           0        3.778619   -1.432487   -0.194568
     24          1           0        1.594253   -2.842695   -1.194368
     25          1           0        1.455931   -0.445112   -1.979574
     26          1           0        3.110043   -0.596818   -2.473359
     27          1           0        4.208047    2.272555   -1.032836
     28          1           0        1.562611   -1.017636    2.767368
     29          1           0        3.637937    0.696538    1.305965
     30          1           0        3.171608    0.788493    2.988350
     31          1           0        3.994075   -0.642568    2.385125
     32          1           0       -2.239347   -1.748956    0.253464
     33          1           0       -4.950563    1.503190   -0.499435
     34          1           0       -3.092350    3.127055   -0.220775
 ---------------------------------------------------------------------
 Rotational constants (GHZ):      0.5436175      0.1811440      0.1621357
 Standard basis: 6-31+G(d,p) (6D, 7F)
 There are   454 symmetry adapted basis functions of A   symmetry.
 Integral buffers will be    131072 words long.
 Raffenetti 2 integral format.
 Two-electron integral symmetry is turned on.
   454 basis functions,   762 primitive gaussians,   454 cartesian basis functions
    78 alpha electrons       78 beta electrons
       nuclear repulsion energy      1743.6692178776 Hartrees.
 NAtoms=   34 NActive=   34 NUniq=   34 SFac= 1.00D+00 NAtFMM=   50 NAOKFM=F Big=F
 Using the following non-standard input for PCM:
 radii=UA0
 --- end of non-standard input.
 ------------------------------------------------------------------------------
 United Atom Topological Model (UA0  parameters set).
  Nord Group  Hybr  Charge Alpha Radius          Bonded to
    1   OH    *     0.00   1.10  1.850   C2   [s]
    2   C     *     0.00   1.10  1.925   O1   [s]  C3   [s]  C20  [s]
    3   C     *     0.00   1.10  1.925   C2   [s]  C4   [s]  C16  [s]
    4   C     *     0.00   1.10  1.925   C3   [s]  N5   [d]  O15  [s]
    5   N     *     0.00   1.10  1.830   C4   [d]  C6   [s]
    6   CH    *     0.00   1.10  2.125   N5   [s]  C7   [s]  C13  [s]
    7   CH    *     0.00   1.10  2.125   C6   [s]  O8   [s]  C9   [s]
    8   OH    *     0.00   1.10  1.850   C7   [s]
    9   CH2   *     0.00   1.10  2.325   C7   [s]  C10  [s]
   10   C     *     0.00   1.10  1.925   C9   [s]  O11  [s]  O12  [d]
   11   OH    *     0.00   1.10  1.850   C10  [s]
   12   O     *     0.00   1.10  1.750   C10  [d]
   13   CH    *     0.00   1.10  2.125   C6   [s]  C14  [s]  O15  [s]
   14   CH3   *     0.00   1.10  2.525   C13  [s]
   15   O     *     0.00   1.10  1.750   C4   [s]  C13  [s]
   16   CH    *     0.00   1.10  2.125   C3   [s]  C17  [s]
   17   C     *     0.00   1.10  1.925   C16  [s] Cl18  [s]  C19  [s]
   18  Cl     *     0.00   1.10  1.973   C17  [s]
   19   CH    *     0.00   1.10  2.125   C17  [s]  C20  [s]
   20   CH    *     0.00   1.10  2.125   C2   [s]  C19  [s]
 ------------------------------------------------------------------------------
 Polarizable Continuum Model (PCM)
 =================================
 Model                : PCM.
 Atomic radii         : UA0 (Simple United Atom Topological Model).
 Polarization charges : Total charges.
 Charge compensation  : None.
 Solution method      : Matrix inversion.
 Cavity type          : Scaled VdW (van der Waals Surface) (Alpha=1.100).
 Cavity algorithm     : GePol (No added spheres)
                        Default sphere list used, NSphG=   20.
                        Lebedev-Laikov grids with approx.  5.0 points / Ang**2.
                        Smoothing algorithm: Karplus/York (Gamma=1.0000).
                        Polarization charges: spherical gaussians, with
                                              point-specific exponents (IZeta= 3).
                        Self-potential: point-specific (ISelfS= 7).
                        Self-field    : sphere-specific E.n sum rule (ISelfD= 2).
 1st derivatives      : Analytical E(r).r(x)/FMM algorithm (CHGder, D1EAlg=3).
                        Cavity 1st derivative terms included.
 Solvent              : Methanol, Eps=  32.613000 Eps(inf)=   1.765709
 ------------------------------------------------------------------------------
 Spheres list:
 ISph  on   Nord    Re0     Alpha      Xe            Ye            Ze
    1   O      1    1.850   1.100     -0.616588      2.569463      0.279261
    2   C      2    1.925   1.100     -1.597117      1.620093      0.178537
    3   C      3    1.925   1.100     -1.351613      0.227431      0.329315
    4   C      4    1.925   1.100     -0.013385     -0.308906      0.673819
    5   N      5    1.830   1.100      0.418131     -1.430651      0.260012
    6   C      6    2.125   1.100      1.780340     -1.565530      0.707660
    7   C      7    2.125   1.100      2.738827     -1.474420     -0.522456
    8   O      8    1.850   1.100      2.535640     -2.708768     -1.184971
    9   C      9    2.325   1.100      2.479307     -0.389032     -1.608042
   10   C     10    1.925   1.100      2.756418      1.055193     -1.191634
   11   O     11    1.850   1.100      4.077051      1.365698     -1.264758
   12   O     12    1.750   1.100      1.880650      1.842457     -0.841942
   13   C     13    2.125   1.100      1.889406     -0.535270      1.843238
   14   C     14    2.525   1.100      3.250562      0.114536      2.135237
   15   O     15    1.750   1.100      0.861014      0.360234      1.486942
   16   C     16    2.125   1.100     -2.413864     -0.687558      0.150970
   17   C     17    1.925   1.100     -3.709485     -0.228707     -0.147289
   18  Cl     18    1.973   1.100     -4.997958     -1.356984     -0.353125
   19   C     19    2.125   1.100     -3.955211      1.150469     -0.272678
   20   C     20    2.125   1.100     -2.901345      2.069369     -0.110724
 ------------------------------------------------------------------------------
 One-electron integrals computed using PRISM.
 NBasis=   454 RedAO= T  NBF=   454
 NBsUse=   453 1.00D-06 NBFU=   453
 Harris functional with IExCor= 1009 diagonalized for initial guess.
 ExpMin= 4.38D-02 ExpMax= 2.52D+04 ExpMxC= 3.78D+03 IAcc=3 IRadAn=         5 AccDes= 0.00D+00
 HarFok:  IExCor= 1009 AccDes= 0.00D+00 IRadAn=         5 IDoV= 1
 ScaDFX=  1.000000  1.000000  1.000000  1.000000
 FoFCou: FMM=F IPFlag=           0 FMFlag=      100000 FMFlg1=           0
         NFxFlg=           0 DoJE=T BraDBF=F KetDBF=T FulRan=T
         Omega=  0.000000  0.000000  1.000000  0.000000  0.000000 ICntrl=     500 IOpCl=  0
         NMat0=    1 NMatS0=    1 NMatT0=    0 NMatD0=    1 NMtDS0=    0 NMtDT0=    0
         I1Cent=           4 NGrid=           0.
 Petite list used in FoFCou.
 Initial guess orbital symmetries:
       Occupied  (A) (A) (A) (A) (A) (A) (A) (A) (A) (A) (A) (A)
                 (A) (A) (A) (A) (A) (A) (A) (A) (A) (A) (A) (A)
                 (A) (A) (A) (A) (A) (A) (A) (A) (A) (A) (A) (A)
                 (A) (A) (A) (A) (A) (A) (A) (A) (A) (A) (A) (A)
                 (A) (A) (A) (A) (A) (A) (A) (A) (A) (A) (A) (A)
                 (A) (A) (A) (A) (A) (A) (A) (A) (A) (A) (A) (A)
                 (A) (A) (A) (A) (A) (A)
       Virtual   (A) (A) (A) (A) (A) (A) (A) (A) (A) (A) (A) (A)
                 (A) (A) (A) (A) (A) (A) (A) (A) (A) (A) (A) (A)
                 (A) (A) (A) (A) (A) (A) (A) (A) (A) (A) (A) (A)
                 (A) (A) (A) (A) (A) (A) (A) (A) (A) (A) (A) (A)
                 (A) (A) (A) (A) (A) (A) (A) (A) (A) (A) (A) (A)
                 (A) (A) (A) (A) (A) (A) (A) (A) (A) (A) (A) (A)
                 (A) (A) (A) (A) (A) (A) (A) (A) (A) (A) (A) (A)
                 (A) (A) (A) (A) (A) (A) (A) (A) (A) (A) (A) (A)
                 (A) (A) (A) (A) (A) (A) (A) (A) (A) (A) (A) (A)
                 (A) (A) (A) (A) (A) (A) (A) (A) (A) (A) (A) (A)
                 (A) (A) (A) (A) (A) (A) (A) (A) (A) (A) (A) (A)
                 (A) (A) (A) (A) (A) (A) (A) (A) (A) (A) (A) (A)
                 (A) (A) (A) (A) (A) (A) (A) (A) (A) (A) (A) (A)
                 (A) (A) (A) (A) (A) (A) (A) (A) (A) (A) (A) (A)
                 (A) (A) (A) (A) (A) (A) (A) (A) (A) (A) (A) (A)
                 (A) (A) (A) (A) (A) (A) (A) (A) (A) (A) (A) (A)
                 (A) (A) (A) (A) (A) (A) (A) (A) (A) (A) (A) (A)
                 (A) (A) (A) (A) (A) (A) (A) (A) (A) (A) (A) (A)
                 (A) (A) (A) (A) (A) (A) (A) (A) (A) (A) (A) (A)
                 (A) (A) (A) (A) (A) (A) (A) (A) (A) (A) (A) (A)
                 (A) (A) (A) (A) (A) (A) (A) (A) (A) (A) (A) (A)
                 (A) (A) (A) (A) (A) (A) (A) (A) (A) (A) (A) (A)
                 (A) (A) (A) (A) (A) (A) (A) (A) (A) (A) (A) (A)
                 (A) (A) (A) (A) (A) (A) (A) (A) (A) (A) (A) (A)
                 (A) (A) (A) (A) (A) (A) (A) (A) (A) (A) (A) (A)
                 (A) (A) (A) (A) (A) (A) (A) (A) (A) (A) (A) (A)
                 (A) (A) (A) (A) (A) (A) (A) (A) (A) (A) (A) (A)
                 (A) (A) (A) (A) (A) (A) (A) (A) (A) (A) (A) (A)
                 (A) (A) (A) (A) (A) (A) (A) (A) (A) (A) (A) (A)
                 (A) (A) (A) (A) (A) (A) (A) (A) (A) (A) (A) (A)
                 (A) (A) (A) (A) (A) (A) (A) (A) (A) (A) (A) (A)
                 (A) (A) (A)
 The electronic state of the initial guess is 1-A.
 Requested convergence on RMS density matrix=1.00D-08 within 128 cycles.
 Requested convergence on MAX density matrix=1.00D-06.
 Requested convergence on             energy=1.00D-06.
 No special actions if energy rises.
 Error on total polarization charges =  0.01475
 SCF Done:  E(RM062X) =  -1394.54998767     A.U. after   16 cycles
             Convg  =    0.4092D-08             -V/T =  2.0067

 **********************************************************************

            Population analysis using the SCF density.

 **********************************************************************

 Orbital symmetries:
       Occupied  (A) (A) (A) (A) (A) (A) (A) (A) (A) (A) (A) (A)
                 (A) (A) (A) (A) (A) (A) (A) (A) (A) (A) (A) (A)
                 (A) (A) (A) (A) (A) (A) (A) (A) (A) (A) (A) (A)
                 (A) (A) (A) (A) (A) (A) (A) (A) (A) (A) (A) (A)
                 (A) (A) (A) (A) (A) (A) (A) (A) (A) (A) (A) (A)
                 (A) (A) (A) (A) (A) (A) (A) (A) (A) (A) (A) (A)
                 (A) (A) (A) (A) (A) (A)
       Virtual   (A) (A) (A) (A) (A) (A) (A) (A) (A) (A) (A) (A)
                 (A) (A) (A) (A) (A) (A) (A) (A) (A) (A) (A) (A)
                 (A) (A) (A) (A) (A) (A) (A) (A) (A) (A) (A) (A)
                 (A) (A) (A) (A) (A) (A) (A) (A) (A) (A) (A) (A)
                 (A) (A) (A) (A) (A) (A) (A) (A) (A) (A) (A) (A)
                 (A) (A) (A) (A) (A) (A) (A) (A) (A) (A) (A) (A)
                 (A) (A) (A) (A) (A) (A) (A) (A) (A) (A) (A) (A)
                 (A) (A) (A) (A) (A) (A) (A) (A) (A) (A) (A) (A)
                 (A) (A) (A) (A) (A) (A) (A) (A) (A) (A) (A) (A)
                 (A) (A) (A) (A) (A) (A) (A) (A) (A) (A) (A) (A)
                 (A) (A) (A) (A) (A) (A) (A) (A) (A) (A) (A) (A)
                 (A) (A) (A) (A) (A) (A) (A) (A) (A) (A) (A) (A)
                 (A) (A) (A) (A) (A) (A) (A) (A) (A) (A) (A) (A)
                 (A) (A) (A) (A) (A) (A) (A) (A) (A) (A) (A) (A)
                 (A) (A) (A) (A) (A) (A) (A) (A) (A) (A) (A) (A)
                 (A) (A) (A) (A) (A) (A) (A) (A) (A) (A) (A) (A)
                 (A) (A) (A) (A) (A) (A) (A) (A) (A) (A) (A) (A)
                 (A) (A) (A) (A) (A) (A) (A) (A) (A) (A) (A) (A)
                 (A) (A) (A) (A) (A) (A) (A) (A) (A) (A) (A) (A)
                 (A) (A) (A) (A) (A) (A) (A) (A) (A) (A) (A) (A)
                 (A) (A) (A) (A) (A) (A) (A) (A) (A) (A) (A) (A)
                 (A) (A) (A) (A) (A) (A) (A) (A) (A) (A) (A) (A)
                 (A) (A) (A) (A) (A) (A) (A) (A) (A) (A) (A) (A)
                 (A) (A) (A) (A) (A) (A) (A) (A) (A) (A) (A) (A)
                 (A) (A) (A) (A) (A) (A) (A) (A) (A) (A) (A) (A)
                 (A) (A) (A) (A) (A) (A) (A) (A) (A) (A) (A) (A)
                 (A) (A) (A) (A) (A) (A) (A) (A) (A) (A) (A) (A)
                 (A) (A) (A) (A) (A) (A) (A) (A) (A) (A) (A) (A)
                 (A) (A) (A) (A) (A) (A) (A) (A) (A) (A) (A) (A)
                 (A) (A) (A) (A) (A) (A) (A) (A) (A) (A) (A) (A)
                 (A) (A) (A) (A) (A) (A) (A) (A) (A) (A) (A) (A)
                 (A) (A) (A)
 The electronic state is 1-A.
 Alpha  occ. eigenvalues -- -102.68281 -19.70941 -19.69553 -19.67776 -19.66893
 Alpha  occ. eigenvalues --  -19.65229 -14.76527 -10.71902 -10.67103 -10.64538
 Alpha  occ. eigenvalues --  -10.62655 -10.62641 -10.62070 -10.59702 -10.59257
 Alpha  occ. eigenvalues --  -10.58786 -10.58423 -10.57419 -10.57417 -10.55574
 Alpha  occ. eigenvalues --   -9.82963  -7.55365  -7.54705  -7.54694  -1.25022
 Alpha  occ. eigenvalues --   -1.24129  -1.18962  -1.16751  -1.16067  -1.03954
 Alpha  occ. eigenvalues --   -1.00758  -0.95247  -0.91763  -0.88421  -0.86973
 Alpha  occ. eigenvalues --   -0.83529  -0.81012  -0.77394  -0.73570  -0.71795
 Alpha  occ. eigenvalues --   -0.70587  -0.69126  -0.67141  -0.64477  -0.61329
 Alpha  occ. eigenvalues --   -0.60642  -0.59739  -0.58423  -0.57862  -0.56516
 Alpha  occ. eigenvalues --   -0.55206  -0.54308  -0.53895  -0.52932  -0.51961
 Alpha  occ. eigenvalues --   -0.51094  -0.50231  -0.49339  -0.48344  -0.47674
 Alpha  occ. eigenvalues --   -0.47103  -0.46607  -0.46495  -0.46051  -0.45652
 Alpha  occ. eigenvalues --   -0.43776  -0.43048  -0.42028  -0.41704  -0.40273
 Alpha  occ. eigenvalues --   -0.38898  -0.38796  -0.38612  -0.36449  -0.35640
 Alpha  occ. eigenvalues --   -0.33925  -0.31373  -0.28737
 Alpha virt. eigenvalues --   -0.02798   0.00469   0.00825   0.01393   0.01700
 Alpha virt. eigenvalues --    0.02298   0.02646   0.03090   0.03467   0.04343
 Alpha virt. eigenvalues --    0.04656   0.04894   0.05106   0.05498   0.06030
 Alpha virt. eigenvalues --    0.06548   0.07189   0.07526   0.07989   0.08232
 Alpha virt. eigenvalues --    0.08729   0.08973   0.09434   0.09919   0.10351
 Alpha virt. eigenvalues --    0.10869   0.11586   0.11784   0.12172   0.12899
 Alpha virt. eigenvalues --    0.12953   0.13713   0.13849   0.14099   0.14645
 Alpha virt. eigenvalues --    0.14831   0.15106   0.15598   0.16066   0.16663
 Alpha virt. eigenvalues --    0.16918   0.17498   0.17860   0.18091   0.18590
 Alpha virt. eigenvalues --    0.18951   0.19432   0.19653   0.19734   0.20393
 Alpha virt. eigenvalues --    0.20728   0.21313   0.21599   0.21962   0.22047
 Alpha virt. eigenvalues --    0.22503   0.22937   0.23145   0.23215   0.24047
 Alpha virt. eigenvalues --    0.24178   0.24460   0.25212   0.25475   0.25657
 Alpha virt. eigenvalues --    0.25937   0.26217   0.26289   0.26596   0.27225
 Alpha virt. eigenvalues --    0.27877   0.28166   0.28595   0.29118   0.29385
 Alpha virt. eigenvalues --    0.29594   0.30141   0.30912   0.31097   0.31797
 Alpha virt. eigenvalues --    0.32149   0.32454   0.33040   0.33321   0.33976
 Alpha virt. eigenvalues --    0.34158   0.34702   0.35355   0.36152   0.36464
 Alpha virt. eigenvalues --    0.36765   0.37112   0.37611   0.37888   0.38591
 Alpha virt. eigenvalues --    0.39634   0.40207   0.40299   0.41220   0.41630
 Alpha virt. eigenvalues --    0.41786   0.42467   0.42941   0.43528   0.43669
 Alpha virt. eigenvalues --    0.44003   0.45667   0.46679   0.46786   0.47657
 Alpha virt. eigenvalues --    0.48055   0.50036   0.51218   0.51829   0.54468
 Alpha virt. eigenvalues --    0.55693   0.56659   0.59510   0.60452   0.64536
 Alpha virt. eigenvalues --    0.66747   0.67586   0.68789   0.70887   0.71249
 Alpha virt. eigenvalues --    0.71671   0.72644   0.73309   0.74214   0.74907
 Alpha virt. eigenvalues --    0.75813   0.75920   0.77857   0.78792   0.79273
 Alpha virt. eigenvalues --    0.79780   0.80643   0.81782   0.82089   0.83296
 Alpha virt. eigenvalues --    0.84639   0.85131   0.85567   0.86155   0.87038
 Alpha virt. eigenvalues --    0.88849   0.89261   0.90800   0.91255   0.92044
 Alpha virt. eigenvalues --    0.93117   0.94151   0.94396   0.96564   0.97682
 Alpha virt. eigenvalues --    0.98014   0.98566   0.99019   1.01175   1.01419
 Alpha virt. eigenvalues --    1.03034   1.03729   1.05577   1.05761   1.07273
 Alpha virt. eigenvalues --    1.07995   1.08674   1.10130   1.11256   1.12027
 Alpha virt. eigenvalues --    1.12310   1.13594   1.14125   1.15008   1.16250
 Alpha virt. eigenvalues --    1.17463   1.18614   1.19309   1.21168   1.21669
 Alpha virt. eigenvalues --    1.21990   1.23074   1.23850   1.24955   1.25163
 Alpha virt. eigenvalues --    1.26783   1.29063   1.29818   1.30325   1.31252
 Alpha virt. eigenvalues --    1.31988   1.34374   1.35507   1.36047   1.36218
 Alpha virt. eigenvalues --    1.36889   1.37265   1.38737   1.40032   1.40936
 Alpha virt. eigenvalues --    1.41952   1.42126   1.42562   1.43019   1.44388
 Alpha virt. eigenvalues --    1.44482   1.45020   1.45053   1.47107   1.47844
 Alpha virt. eigenvalues --    1.48663   1.50416   1.52006   1.53206   1.54748
 Alpha virt. eigenvalues --    1.55912   1.57227   1.58146   1.58992   1.59379
 Alpha virt. eigenvalues --    1.60741   1.63253   1.65628   1.66144   1.68812
 Alpha virt. eigenvalues --    1.69335   1.70668   1.74307   1.75148   1.76425
 Alpha virt. eigenvalues --    1.78171   1.78574   1.79204   1.80487   1.81774
 Alpha virt. eigenvalues --    1.82427   1.83379   1.84915   1.86206   1.86362
 Alpha virt. eigenvalues --    1.88695   1.89740   1.92347   1.92861   1.94239
 Alpha virt. eigenvalues --    1.95128   1.96218   1.96963   1.97753   1.98726
 Alpha virt. eigenvalues --    1.99418   2.01506   2.02408   2.03044   2.04278
 Alpha virt. eigenvalues --    2.05806   2.06943   2.07967   2.09654   2.10150
 Alpha virt. eigenvalues --    2.10611   2.10989   2.14075   2.14580   2.16324
 Alpha virt. eigenvalues --    2.17666   2.18964   2.20002   2.21045   2.21498
 Alpha virt. eigenvalues --    2.23439   2.23894   2.25990   2.28946   2.29407
 Alpha virt. eigenvalues --    2.31529   2.33481   2.34401   2.35649   2.36955
 Alpha virt. eigenvalues --    2.38958   2.40111   2.42094   2.42920   2.43400
 Alpha virt. eigenvalues --    2.44428   2.45918   2.47245   2.47884   2.49382
 Alpha virt. eigenvalues --    2.50472   2.52643   2.53361   2.53515   2.55791
 Alpha virt. eigenvalues --    2.55917   2.56757   2.58206   2.58979   2.59632
 Alpha virt. eigenvalues --    2.60857   2.62004   2.63298   2.65197   2.66401
 Alpha virt. eigenvalues --    2.67886   2.68368   2.69812   2.70393   2.70754
 Alpha virt. eigenvalues --    2.71613   2.73240   2.74452   2.75312   2.76745
 Alpha virt. eigenvalues --    2.78267   2.79519   2.80084   2.81012   2.81748
 Alpha virt. eigenvalues --    2.83733   2.86483   2.87087   2.90591   2.91602
 Alpha virt. eigenvalues --    2.93591   2.96578   2.97462   3.01229   3.02374
 Alpha virt. eigenvalues --    3.03757   3.05735   3.08411   3.08866   3.12041
 Alpha virt. eigenvalues --    3.14521   3.15655   3.18280   3.22540   3.24446
 Alpha virt. eigenvalues --    3.27393   3.32613   3.35635   3.38435   3.40513
 Alpha virt. eigenvalues --    3.43949   3.45836   3.46574   3.47793   3.52815
 Alpha virt. eigenvalues --    3.53748   3.58620   3.64914   3.65869   3.76409
 Alpha virt. eigenvalues --    4.28169   4.30590   4.33101   4.35016   4.38602
 Alpha virt. eigenvalues --    4.40086   4.42085   4.45360   4.47539   4.50682
 Alpha virt. eigenvalues --    4.52045   4.57435   4.59491   4.60959   4.68013
 Alpha virt. eigenvalues --    4.78544   4.79015   4.87369   4.89847   4.91685
          Condensed to atoms (all electrons):
              1          2          3          4          5          6
     1  O    8.411942   0.286335   0.109002   0.006677  -0.000618  -0.020232
     2  C    0.286335  22.519984  -6.942816   0.865701  -0.149092   0.610754
     3  C    0.109002  -6.942816  16.122822  -0.664272  -0.307207  -0.564208
     4  C    0.006677   0.865701  -0.664272  10.065362  -0.103151   0.378361
     5  N   -0.000618  -0.149092  -0.307207  -0.103151   7.296075  -0.297241
     6  C   -0.020232   0.610754  -0.564208   0.378361  -0.297241   9.654971
     7  C    0.007950  -0.213044   0.267442   0.397416  -0.197526  -1.116025
     8  O   -0.000016   0.003006   0.014761  -0.012614   0.015998  -0.170315
     9  C   -0.003223   0.170817  -0.179075  -0.238989   0.052533   0.251316
    10  C   -0.004819   0.018171  -0.052383   0.020877  -0.019818   0.015242
    11  O   -0.000155  -0.015112   0.019183  -0.020789   0.007264  -0.039260
    12  O   -0.001158  -0.084956   0.109572  -0.005273  -0.002390   0.005628
    13  C    0.022966  -0.102417  -0.123274  -1.860875   0.676115  -2.770130
    14  C   -0.002280  -0.080543  -0.043216  -0.137490  -0.015925   0.364416
    15  O   -0.003275   0.233696  -0.565225   0.328768  -0.091027  -0.081018
    16  C    0.122255  -7.526390   2.091790  -3.515241   0.166234  -0.542314
    17  C   -0.014822  -0.203520  -1.836271   0.569738   0.106315   0.054259
    18  Cl  -0.000172  -0.005994  -0.020320   0.004193  -0.001677  -0.003343
    19  C    0.045876   1.955011  -0.619429  -0.233850  -0.007738   0.073040
    20  C   -0.613180  -4.947665  -0.686395  -0.091814   0.067350  -0.129248
    21  H    0.199298   0.040634  -0.127642   0.053342  -0.003909  -0.006876
    22  H    0.000020  -0.006802   0.003315   0.029177  -0.055512   0.376992
    23  H   -0.000006   0.001071  -0.002763  -0.045931   0.015103  -0.035563
    24  H   -0.000005   0.002376  -0.003032  -0.004574   0.036275  -0.059327
    25  H   -0.000167  -0.012161  -0.008749  -0.020211   0.034995  -0.050641
    26  H    0.000012  -0.000211  -0.001167   0.002569  -0.001260   0.057179
    27  H    0.000012   0.000540  -0.000003  -0.000955  -0.000369   0.007549
    28  H   -0.000326   0.026507  -0.018267   0.095490  -0.010570   0.033882
    29  H   -0.000071   0.002511  -0.000954   0.049997  -0.007789  -0.001898
    30  H   -0.000034   0.000586  -0.007885  -0.008122   0.001337   0.006927
    31  H   -0.000002   0.000722  -0.002375  -0.011502  -0.000227   0.031427
    32  H   -0.000409   0.047201   0.042745   0.087480  -0.000579   0.001080
    33  H   -0.000441  -0.035929   0.010634  -0.007687   0.000042  -0.000022
    34  H   -0.003535   0.053451   0.014952   0.001590  -0.000014  -0.000092
              7          8          9         10         11         12
     1  O    0.007950  -0.000016  -0.003223  -0.004819  -0.000155  -0.001158
     2  C   -0.213044   0.003006   0.170817   0.018171  -0.015112  -0.084956
     3  C    0.267442   0.014761  -0.179075  -0.052383   0.019183   0.109572
     4  C    0.397416  -0.012614  -0.238989   0.020877  -0.020789  -0.005273
     5  N   -0.197526   0.015998   0.052533  -0.019818   0.007264  -0.002390
     6  C   -1.116025  -0.170315   0.251316   0.015242  -0.039260   0.005628
     7  C    6.973083   0.381259  -0.290229  -0.255779   0.060118  -0.008546
     8  O    0.381259   8.227260  -0.166807  -0.012537  -0.000529   0.000630
     9  C   -0.290229  -0.166807   6.567201  -0.308032  -0.258204  -0.211685
    10  C   -0.255779  -0.012537  -0.308032   5.753710   0.309184   0.595140
    11  O    0.060118  -0.000529  -0.258204   0.309184   8.172490  -0.128056
    12  O   -0.008546   0.000630  -0.211685   0.595140  -0.128056   8.118535
    13  C   -0.279063   0.073459  -0.004615   0.141798   0.032223   0.027798
    14  C   -0.125193  -0.009136   0.043145  -0.196789  -0.004569  -0.015334
    15  O    0.034556  -0.004041   0.021713  -0.003724  -0.004487  -0.038745
    16  C    0.246106  -0.020304  -0.087712  -0.057023   0.004182   0.029447
    17  C   -0.021732  -0.005116   0.026169  -0.010986   0.000354   0.004629
    18  Cl   0.000712   0.000011  -0.000451  -0.000245   0.000001  -0.000020
    19  C   -0.000305  -0.001034   0.007294   0.006517  -0.000294  -0.005965
    20  C   -0.039970   0.002667  -0.001601   0.009153  -0.001706  -0.013097
    21  H    0.002851   0.000027  -0.004682   0.000849   0.000262   0.024787
    22  H    0.011067  -0.007299   0.002792   0.005320  -0.000108  -0.000372
    23  H    0.391399  -0.043730  -0.045078  -0.019911   0.006593   0.002636
    24  H    0.016212   0.266771  -0.026919  -0.002886   0.000147   0.000295
    25  H   -0.005403   0.001479   0.409936  -0.068690   0.008766   0.004295
    26  H   -0.072735  -0.004227   0.389894  -0.041788   0.000904   0.005756
    27  H   -0.011685   0.000112   0.041771  -0.019996   0.259545   0.001942
    28  H    0.023143  -0.000807   0.001155  -0.002180  -0.000060  -0.000366
    29  H    0.043692  -0.000528  -0.017820   0.023936  -0.003469  -0.004776
    30  H   -0.008730   0.000049  -0.000241   0.000109   0.000345   0.000305
    31  H   -0.023201  -0.000086   0.001467  -0.001258   0.000312   0.000005
    32  H   -0.001127   0.000027   0.000249  -0.000037   0.000000   0.000029
    33  H   -0.000007   0.000000   0.000001  -0.000003   0.000000   0.000001
    34  H    0.000031   0.000000  -0.000016  -0.000036   0.000000  -0.000010
             13         14         15         16         17         18
     1  O    0.022966  -0.002280  -0.003275   0.122255  -0.014822  -0.000172
     2  C   -0.102417  -0.080543   0.233696  -7.526390  -0.203520  -0.005994
     3  C   -0.123274  -0.043216  -0.565225   2.091790  -1.836271  -0.020320
     4  C   -1.860875  -0.137490   0.328768  -3.515241   0.569738   0.004193
     5  N    0.676115  -0.015925  -0.091027   0.166234   0.106315  -0.001677
     6  C   -2.770130   0.364416  -0.081018  -0.542314   0.054259  -0.003343
     7  C   -0.279063  -0.125193   0.034556   0.246106  -0.021732   0.000712
     8  O    0.073459  -0.009136  -0.004041  -0.020304  -0.005116   0.000011
     9  C   -0.004615   0.043145   0.021713  -0.087712   0.026169  -0.000451
    10  C    0.141798  -0.196789  -0.003724  -0.057023  -0.010986  -0.000245
    11  O    0.032223  -0.004569  -0.004487   0.004182   0.000354   0.000001
    12  O    0.027798  -0.015334  -0.038745   0.029447   0.004629  -0.000020
    13  C   10.399987  -0.335263  -0.074147  -0.640212   0.147860   0.001427
    14  C   -0.335263   5.813860  -0.009946   0.018963   0.025155  -0.000029
    15  O   -0.074147  -0.009946   8.444152  -0.053890   0.050914  -0.000417
    16  C   -0.640212   0.018963  -0.053890  24.299707  -4.028975  -0.070173
    17  C    0.147860   0.025155   0.050914  -4.028975   9.739437  -0.163887
    18  Cl   0.001427  -0.000029  -0.000417  -0.070173  -0.163887  17.030349
    19  C   -0.095690  -0.004019   0.013748  -3.005531   0.810658  -0.077884
    20  C    0.294153  -0.005742   0.062746  -0.991149   0.557651   0.085253
    21  H    0.003921  -0.000888   0.007970  -0.041602   0.005292   0.000004
    22  H   -0.068631  -0.012091   0.008654   0.009524   0.000514  -0.000003
    23  H    0.037426   0.019806  -0.004106  -0.003458  -0.000052   0.000000
    24  H    0.035648  -0.000334  -0.000391  -0.006050   0.000910   0.000005
    25  H    0.032203   0.001189  -0.003178  -0.002624   0.003560  -0.000001
    26  H   -0.007821   0.005055   0.000131   0.000794   0.000238   0.000001
    27  H   -0.004715   0.001342   0.000088  -0.000124  -0.000014   0.000000
    28  H    0.251189  -0.055241  -0.058713  -0.002747  -0.000152   0.000006
    29  H   -0.080547   0.356781  -0.004695   0.000085  -0.000218   0.000000
    30  H   -0.062725   0.449902  -0.005389  -0.000020   0.000191   0.000000
    31  H   -0.096757   0.455944   0.008439  -0.000476   0.000025   0.000000
    32  H    0.004431  -0.000240   0.000092   0.110794   0.006507  -0.002738
    33  H   -0.000071  -0.000002   0.000006   0.119456   0.073583  -0.008453
    34  H    0.000096  -0.000010   0.000087  -0.006283  -0.001407   0.000959
             19         20         21         22         23         24
     1  O    0.045876  -0.613180   0.199298   0.000020  -0.000006  -0.000005
     2  C    1.955011  -4.947665   0.040634  -0.006802   0.001071   0.002376
     3  C   -0.619429  -0.686395  -0.127642   0.003315  -0.002763  -0.003032
     4  C   -0.233850  -0.091814   0.053342   0.029177  -0.045931  -0.004574
     5  N   -0.007738   0.067350  -0.003909  -0.055512   0.015103   0.036275
     6  C    0.073040  -0.129248  -0.006876   0.376992  -0.035563  -0.059327
     7  C   -0.000305  -0.039970   0.002851   0.011067   0.391399   0.016212
     8  O   -0.001034   0.002667   0.000027  -0.007299  -0.043730   0.266771
     9  C    0.007294  -0.001601  -0.004682   0.002792  -0.045078  -0.026919
    10  C    0.006517   0.009153   0.000849   0.005320  -0.019911  -0.002886
    11  O   -0.000294  -0.001706   0.000262  -0.000108   0.006593   0.000147
    12  O   -0.005965  -0.013097   0.024787  -0.000372   0.002636   0.000295
    13  C   -0.095690   0.294153   0.003921  -0.068631   0.037426   0.035648
    14  C   -0.004019  -0.005742  -0.000888  -0.012091   0.019806  -0.000334
    15  O    0.013748   0.062746   0.007970   0.008654  -0.004106  -0.000391
    16  C   -3.005531  -0.991149  -0.041602   0.009524  -0.003458  -0.006050
    17  C    0.810658   0.557651   0.005292   0.000514  -0.000052   0.000910
    18  Cl  -0.077884   0.085253   0.000004  -0.000003   0.000000   0.000005
    19  C    8.753646  -1.413691  -0.013055   0.000002  -0.000039  -0.000023
    20  C   -1.413691  13.172473   0.109658  -0.000323   0.000163   0.000307
    21  H   -0.013055   0.109658   0.313622  -0.000001   0.000001   0.000000
    22  H    0.000002  -0.000323  -0.000001   0.511975  -0.003739  -0.003209
    23  H   -0.000039   0.000163   0.000001  -0.003739   0.534539   0.005819
    24  H   -0.000023   0.000307   0.000000  -0.003209   0.005819   0.327139
    25  H   -0.001311   0.003029   0.000024  -0.000105   0.003690   0.001604
    26  H    0.000013  -0.000267  -0.000007  -0.000062  -0.003725  -0.000402
    27  H    0.000010   0.000008  -0.000002   0.000000   0.000009   0.000000
    28  H    0.000838  -0.000226   0.000024  -0.007796  -0.000083  -0.000015
    29  H    0.000105  -0.000628   0.000034  -0.000034  -0.002186  -0.000002
    30  H   -0.000019  -0.000182   0.000004  -0.000091   0.000102   0.000000
    31  H   -0.000011   0.000126   0.000001   0.000460  -0.000276  -0.000004
    32  H    0.034634  -0.008046  -0.000006   0.000007   0.000000   0.000007
    33  H    0.192659  -0.014579   0.000002   0.000000   0.000000   0.000000
    34  H   -0.014511   0.283015   0.000061   0.000000   0.000000   0.000000
             25         26         27         28         29         30
     1  O   -0.000167   0.000012   0.000012  -0.000326  -0.000071  -0.000034
     2  C   -0.012161  -0.000211   0.000540   0.026507   0.002511   0.000586
     3  C   -0.008749  -0.001167  -0.000003  -0.018267  -0.000954  -0.007885
     4  C   -0.020211   0.002569  -0.000955   0.095490   0.049997  -0.008122
     5  N    0.034995  -0.001260  -0.000369  -0.010570  -0.007789   0.001337
     6  C   -0.050641   0.057179   0.007549   0.033882  -0.001898   0.006927
     7  C   -0.005403  -0.072735  -0.011685   0.023143   0.043692  -0.008730
     8  O    0.001479  -0.004227   0.000112  -0.000807  -0.000528   0.000049
     9  C    0.409936   0.389894   0.041771   0.001155  -0.017820  -0.000241
    10  C   -0.068690  -0.041788  -0.019996  -0.002180   0.023936   0.000109
    11  O    0.008766   0.000904   0.259545  -0.000060  -0.003469   0.000345
    12  O    0.004295   0.005756   0.001942  -0.000366  -0.004776   0.000305
    13  C    0.032203  -0.007821  -0.004715   0.251189  -0.080547  -0.062725
    14  C    0.001189   0.005055   0.001342  -0.055241   0.356781   0.449902
    15  O   -0.003178   0.000131   0.000088  -0.058713  -0.004695  -0.005389
    16  C   -0.002624   0.000794  -0.000124  -0.002747   0.000085  -0.000020
    17  C    0.003560   0.000238  -0.000014  -0.000152  -0.000218   0.000191
    18  Cl  -0.000001   0.000001   0.000000   0.000006   0.000000   0.000000
    19  C   -0.001311   0.000013   0.000010   0.000838   0.000105  -0.000019
    20  C    0.003029  -0.000267   0.000008  -0.000226  -0.000628  -0.000182
    21  H    0.000024  -0.000007  -0.000002   0.000024   0.000034   0.000004
    22  H   -0.000105  -0.000062   0.000000  -0.007796  -0.000034  -0.000091
    23  H    0.003690  -0.003725   0.000009  -0.000083  -0.002186   0.000102
    24  H    0.001604  -0.000402   0.000000  -0.000015  -0.000002   0.000000
    25  H    0.488456  -0.028492  -0.000177  -0.000010  -0.000031   0.000001
    26  H   -0.028492   0.489391   0.000022   0.000000   0.000014   0.000000
    27  H   -0.000177   0.000022   0.290159   0.000000  -0.000172  -0.000003
    28  H   -0.000010   0.000000   0.000000   0.546301   0.004365  -0.004831
    29  H   -0.000031   0.000014  -0.000172   0.004365   0.531456  -0.026121
    30  H    0.000001   0.000000  -0.000003  -0.004831  -0.026121   0.502464
    31  H    0.000000   0.000000  -0.000004  -0.001985  -0.026826  -0.023099
    32  H    0.000001   0.000000   0.000000  -0.000006   0.000000   0.000000
    33  H    0.000000   0.000000   0.000000   0.000000   0.000000   0.000000
    34  H    0.000000   0.000000   0.000000   0.000000   0.000000   0.000000
             31         32         33         34
     1  O   -0.000002  -0.000409  -0.000441  -0.003535
     2  C    0.000722   0.047201  -0.035929   0.053451
     3  C   -0.002375   0.042745   0.010634   0.014952
     4  C   -0.011502   0.087480  -0.007687   0.001590
     5  N   -0.000227  -0.000579   0.000042  -0.000014
     6  C    0.031427   0.001080  -0.000022  -0.000092
     7  C   -0.023201  -0.001127  -0.000007   0.000031
     8  O   -0.000086   0.000027   0.000000   0.000000
     9  C    0.001467   0.000249   0.000001  -0.000016
    10  C   -0.001258  -0.000037  -0.000003  -0.000036
    11  O    0.000312   0.000000   0.000000   0.000000
    12  O    0.000005   0.000029   0.000001  -0.000010
    13  C   -0.096757   0.004431  -0.000071   0.000096
    14  C    0.455944  -0.000240  -0.000002  -0.000010
    15  O    0.008439   0.000092   0.000006   0.000087
    16  C   -0.000476   0.110794   0.119456  -0.006283
    17  C    0.000025   0.006507   0.073583  -0.001407
    18  Cl   0.000000  -0.002738  -0.008453   0.000959
    19  C   -0.000011   0.034634   0.192659  -0.014511
    20  C    0.000126  -0.008046  -0.014579   0.283015
    21  H    0.000001  -0.000006   0.000002   0.000061
    22  H    0.000460   0.000007   0.000000   0.000000
    23  H   -0.000276   0.000000   0.000000   0.000000
    24  H   -0.000004   0.000007   0.000000   0.000000
    25  H    0.000000   0.000001   0.000000   0.000000
    26  H    0.000000   0.000000   0.000000   0.000000
    27  H   -0.000004   0.000000   0.000000   0.000000
    28  H   -0.001985  -0.000006   0.000000   0.000000
    29  H   -0.026826   0.000000   0.000000   0.000000
    30  H   -0.023099   0.000000   0.000000   0.000000
    31  H    0.497840   0.000000   0.000000   0.000000
    32  H    0.000000   0.466490  -0.000125   0.000008
    33  H    0.000000  -0.000125   0.469311  -0.003696
    34  H    0.000000   0.000008  -0.003696   0.473272
 Mulliken atomic charges:
              1
     1  O   -0.543397
     2  C   -0.512423
     3  C   -0.029289
     4  C    0.026604
     5  N   -0.201998
     6  C   -0.035270
     7  C   -0.186738
     8  O   -0.528390
     9  C   -0.142071
    10  C    0.178916
    11  O   -0.405075
    12  O   -0.410680
    13  C    0.424250
    14  C   -0.501279
    15  O   -0.209348
    16  C   -0.617037
    17  C    0.103193
    18  Cl   0.232887
    19  C   -0.399654
    20  C    0.311759
    21  H    0.436001
    22  H    0.206360
    23  H    0.192290
    24  H    0.413659
    25  H    0.208724
    26  H    0.210192
    27  H    0.435112
    28  H    0.181481
    29  H    0.165790
    30  H    0.185170
    31  H    0.191324
    32  H    0.211533
    33  H    0.205320
    34  H    0.202087
 Sum of Mulliken atomic charges =   0.00000
 Mulliken charges with hydrogens summed into heavy atoms:
              1
     1  O   -0.107397
     2  C   -0.512423
     3  C   -0.029289
     4  C    0.026604
     5  N   -0.201998
     6  C    0.171090
     7  C    0.005552
     8  O   -0.114731
     9  C    0.276845
    10  C    0.178916
    11  O    0.030037
    12  O   -0.410680
    13  C    0.605731
    14  C    0.041004
    15  O   -0.209348
    16  C   -0.405504
    17  C    0.103193
    18  Cl   0.232887
    19  C   -0.194334
    20  C    0.513846
 Sum of Mulliken charges with hydrogens summed into heavy atoms =   0.00000
 Electronic spatial extent (au):  <R**2>=           6709.8909
 Charge=              0.0000 electrons
 Dipole moment (field-independent basis, Debye):
    X=              4.2808    Y=              1.0148    Z=              1.2255  Tot=              4.5669
 Quadrupole moment (field-independent basis, Debye-Ang):
   XX=           -112.2651   YY=           -129.3487   ZZ=           -121.3010
   XY=              4.3110   XZ=              6.9582   YZ=             -8.4615
 Traceless Quadrupole moment (field-independent basis, Debye-Ang):
   XX=              8.7065   YY=             -8.3771   ZZ=             -0.3294
   XY=              4.3110   XZ=              6.9582   YZ=             -8.4615
 Octapole moment (field-independent basis, Debye-Ang**2):
  XXX=             85.5897  YYY=             22.2581  ZZZ=              1.2763  XYY=              2.0270
  XXY=             91.5695  XXZ=             13.7984  XZZ=             30.6847  YZZ=             -3.2240
  YYZ=              2.6165  XYZ=            -16.4605
 Hexadecapole moment (field-independent basis, Debye-Ang**3):
 XXXX=          -6070.4691 YYYY=          -1685.5746 ZZZZ=           -876.8717 XXXY=             82.3541
 XXXZ=             81.5369 YYYX=            164.8807 YYYZ=            -57.1274 ZZZX=              3.6359
 ZZZY=            -13.9343 XXYY=          -1194.9427 XXZZ=          -1189.7362 YYZZ=           -437.2979
 XXYZ=            -95.7826 YYXZ=             28.8273 ZZXY=             29.5618
 N-N= 1.743669217878D+03 E-N=-6.760292860374D+03  KE= 1.385323118474D+03
 D1PCM: PCM CHGder 1st derivatives, ID1Alg=3 FixD1E=F DoIter=F DoCFld=F I1PDM=0.
 Calling FoFJK, ICntrl=      2127 FMM=F ISym2X=0 I1Cent= 0 IOpClX= 0 NMat=1 NMatS=1 NMatT=0.
 ***** Axes restored to original set *****
 -------------------------------------------------------------------
 Center     Atomic                   Forces (Hartrees/Bohr)
 Number     Number              X              Y              Z
 -------------------------------------------------------------------
      1        8          -0.027422292    0.002378232    0.012045719
      2        6           0.006681625    0.001098081   -0.002477696
      3        6          -0.006989730   -0.010752176    0.005958562
      4        6           0.008559827    0.001986138   -0.011295303
      5        7          -0.004771486    0.017640447    0.012785183
      6        6           0.011634719   -0.015190066   -0.013511545
      7        6          -0.010375639    0.010078046    0.005215351
      8        8           0.025618733   -0.001407023   -0.010404147
      9        6          -0.000956331   -0.018331193    0.000564202
     10        6          -0.006400144    0.000345025    0.002216900
     11        8          -0.023336937    0.041138680   -0.001153847
     12        8           0.023377473    0.006529071   -0.011570170
     13        6           0.015201813    0.006072114   -0.014394754
     14        6          -0.009006149    0.001143444    0.009818174
     15        8          -0.020956493   -0.027710143    0.033594674
     16        6          -0.004783643   -0.008881147    0.012286069
     17        6           0.019439348   -0.019690402   -0.005842772
     18       17          -0.004973212    0.006676628    0.000490708
     19        6           0.012680419   -0.004336172   -0.012081117
     20        6          -0.003618880    0.016614916   -0.009349970
     21        1           0.013938985    0.008605847   -0.011311016
     22        1           0.007898747    0.005907274    0.000943323
     23        1           0.001376391   -0.000376567   -0.002430274
     24        1          -0.017114525    0.012607347    0.009529750
     25        1          -0.006862858   -0.002035716   -0.002407828
     26        1           0.003455252    0.001314149   -0.007163102
     27        1           0.000643733   -0.036159054    0.008139496
     28        1          -0.003322623    0.002090589   -0.003414336
     29        1           0.003898876    0.001242969    0.006005090
     30        1          -0.002448108   -0.000971208   -0.000296779
     31        1          -0.001644697    0.004238087   -0.001430393
     32        1           0.001828139    0.001752902   -0.003856415
     33        1          -0.002878185   -0.000260231    0.003196681
     34        1           0.001627852   -0.003358890    0.001601583
 -------------------------------------------------------------------
 Cartesian Forces:  Max     0.041138680 RMS     0.011829709

 GradGradGradGradGradGradGradGradGradGradGradGradGradGradGradGradGradGrad
 Berny optimization.
 Internal  Forces:  Max     0.037061643 RMS     0.007531846
 Search for a local minimum.
 Step number   1 out of a maximum of  192
 All quantities printed in internal units (Hartrees-Bohrs-Radians)
 Mixed Optimization -- RFO/linear search
 Second derivative matrix not updated -- first step.
 ITU=  0
     Eigenvalues ---    0.00230   0.00286   0.00322   0.00399   0.00842
     Eigenvalues ---    0.00866   0.01402   0.01486   0.01602   0.01744
     Eigenvalues ---    0.01898   0.01956   0.01965   0.01968   0.01977
     Eigenvalues ---    0.01995   0.01996   0.02003   0.02122   0.02239
     Eigenvalues ---    0.03104   0.03390   0.03636   0.03812   0.04174
     Eigenvalues ---    0.04300   0.04967   0.05018   0.05150   0.05202
     Eigenvalues ---    0.05551   0.07618   0.08479   0.08575   0.09745
     Eigenvalues ---    0.09930   0.13216   0.13739   0.15999   0.15999
     Eigenvalues ---    0.16000   0.16000   0.16000   0.16000   0.16000
     Eigenvalues ---    0.16000   0.16000   0.17097   0.17363   0.19795
     Eigenvalues ---    0.21872   0.22317   0.22977   0.23506   0.23929
     Eigenvalues ---    0.24606   0.24996   0.24998   0.24999   0.25000
     Eigenvalues ---    0.25000   0.26562   0.27073   0.27638   0.28848
     Eigenvalues ---    0.29566   0.33045   0.34137   0.34494   0.34529
     Eigenvalues ---    0.34689   0.34724   0.34793   0.34794   0.34805
     Eigenvalues ---    0.35438   0.35931   0.35944   0.35986   0.37554
     Eigenvalues ---    0.39728   0.40399   0.42304   0.43115   0.43135
     Eigenvalues ---    0.43929   0.44286   0.44515   0.48001   0.51131
     Eigenvalues ---    0.53229   0.55837   0.57475   0.58791   0.71041
     Eigenvalues ---    0.90677
 RFO step:  Lambda=-3.18482406D-02 EMin= 2.30000000D-03
 Linear search not attempted -- first point.
 Iteration  1 RMS(Cart)=  0.11706467 RMS(Int)=  0.00219378
 Iteration  2 RMS(Cart)=  0.00425794 RMS(Int)=  0.00046058
 Iteration  3 RMS(Cart)=  0.00000743 RMS(Int)=  0.00046055
 Iteration  4 RMS(Cart)=  0.00000001 RMS(Int)=  0.00046055
 Variable       Old X    -DE/DX   Delta X   Delta X   Delta X     New X
                                 (Linear)    (Quad)   (Total)
    R1        2.58615  -0.01826   0.00000  -0.03249  -0.03262   2.55353
    R2        1.80539   0.01598   0.00000   0.02890   0.02863   1.83402
    R3        2.68748  -0.01587   0.00000  -0.03660  -0.03644   2.65103
    R4        2.66346  -0.01364   0.00000  -0.02907  -0.02904   2.63442
    R5        2.80113  -0.00836   0.00000  -0.02489  -0.02467   2.77646
    R6        2.67073  -0.01534   0.00000  -0.03332  -0.03327   2.63746
    R7        2.40208   0.01301   0.00000   0.01625   0.01638   2.41846
    R8        2.58657  -0.00750   0.00000  -0.01531  -0.01505   2.57153
    R9        2.72159   0.01287   0.00000   0.03153   0.03139   2.75299
   R10        2.95196  -0.00781   0.00000  -0.03025  -0.02999   2.92197
   R11        2.90482   0.00612   0.00000   0.01820   0.01819   2.92301
   R12        2.06504   0.00138   0.00000   0.00367   0.00367   2.06871
[...]
 9960,0.01324841,-0.05004277,0.01260639,-0.00182190,0.00074721,-0.00069
 645,-0.00000214,0.00000668,-0.00000581,-0.00000177,-0.00000600,-0.0000
 0083,0.00000129,-0.00000112,-0.00000108,0.00000146,-0.00000094,0.00000
 263,-0.00000711,-0.00000378,-0.00000677,0.00006104,0.00002642,0.000080
 21,-0.00012919,0.00019684,-0.00001347,-0.00059726,-0.00092429,0.000353
 27,0.00011098,0.00001310,0.00000036,0.00005762,0.00010931,0.00008904,-
 0.00003630,0.00004608,-0.00003404,0.00005987,0.00030943,0.00026737,0.0
 0352178,-0.00254993,-0.00171037,-0.01664984,0.05234058,-0.00004580,0.0
 0000138,0.00001372,0.00003388,-0.00003361,-0.00002007,-0.00000689,0.00
 008514,0.00002504,-0.00008779,-0.00054520,-0.00006418,0.00005128,0.000
 22545,0.00000066,-0.00035721,0.00031889,0.00020788,-0.00055396,0.00034
 903,0.00066573,0.00026003,-0.00022505,-0.00026019,-0.00006611,0.000123
 28,-0.00012336,-0.00007133,-0.00292559,-0.00407547,-0.00144358,-0.0004
 3673,-0.00191823,-0.00057758,-0.00002887,0.00025526,0.00738080,-0.0000
 4547,0.00643758,-0.13926244,0.01505609,-0.20192749,-0.00115854,0.00081
 825,0.00174007,-0.00000458,-0.00002183,0.00000516,-0.00000678,-0.00001
 298,0.00000569,-0.00000885,0.00001124,0.00000445,-0.00000425,0.0000093
 3,0.00000314,-0.00000280,0.00000313,-0.00000038,0.00003539,0.00007739,
 0.00001689,0.00005349,0.00000510,-0.00001608,0.00037152,0.00007233,-0.
 00023109,-0.00005147,-0.00006803,0.00003610,0.00003068,0.00010253,-0.0
 0005025,-0.00005668,0.00003779,-0.00002259,-0.00046455,0.00044162,-0.0
 0065745,0.00171235,-0.00135681,0.00070196,0.15344424,-0.01319040,0.219
 57878,0.00004570,-0.00005296,-0.00002125,-0.00006552,0.00008940,0.0000
 3144,-0.00005748,-0.00012340,-0.00002105,0.00042653,0.00087541,-0.0003
 4004,-0.00043635,0.00146720,0.00133933,-0.00387789,0.00057042,0.001104
 25,-0.00111836,0.00028685,0.00025533,0.00042689,-0.00020991,-0.0000679
 3,0.00014105,0.00002052,0.00002816,-0.00050216,0.00033301,0.00054106,-
 0.00009218,-0.00019919,-0.00070230,0.00018259,0.00001771,-0.00016448,0
 .01055510,0.02611818,0.00437043,-0.09796220,-0.10786833,-0.01889452,0.
 00157502,-0.00134547,-0.00150853,-0.00001768,0.00000164,-0.00001063,0.
 00001442,-0.00003520,0.00000775,-0.00000648,0.00000930,0.00000321,-0.0
 0001654,0.00001216,0.00001445,0.00000995,-0.00000915,0.,-0.00001703,-0
 .00002935,0.00001059,0.00007953,0.00029995,-0.00004653,0.00046782,-0.0
 0015880,-0.00032493,-0.00008124,-0.00009234,-0.00000656,-0.00001796,-0
 .00001854,-0.00006368,0.00002326,-0.00002142,0.00003339,0.00006406,-0.
 00016142,0.00010821,0.00122254,-0.00062778,-0.00027798,-0.00826578,-0.
 01845145,-0.00080967,0.10418481,-0.00003587,0.00010049,-0.00000006,0.0
 0007691,-0.00013902,-0.00003207,0.00006495,0.00010157,-0.00001477,-0.0
 0031208,-0.00113199,0.00003498,0.00050135,-0.00074434,-0.00103589,0.00
 346830,0.00113188,0.00006608,0.00067835,0.00046329,0.00018784,-0.00025
 962,-0.00027324,-0.00007874,-0.00005689,-0.00002730,-0.00004528,0.0001
 0580,-0.00027099,-0.00003327,-0.00000814,0.00009182,0.00009763,-0.0000
 2967,0.00008134,-0.00002108,-0.01007529,-0.02200272,-0.00306509,-0.105
 23300,-0.26760723,-0.03591079,-0.00050805,0.00191362,0.00072426,0.0000
 1360,0.00002413,0.00000084,-0.00001106,0.00006645,-0.00002442,0.000018
 88,-0.00002539,-0.00000912,0.00003354,-0.00003406,-0.00002127,-0.00001
 769,0.00002095,0.00000827,0.00004092,-0.00005455,-0.00006129,-0.000073
 60,-0.00044804,-0.00001644,0.00009651,0.00006037,0.00004743,-0.0000028
 3,0.00010271,0.00005583,0.00001258,0.00001287,0.00000249,-0.00002057,0
 .00001299,-0.00003768,-0.00000473,-0.00001133,-0.00000204,-0.00008884,
 0.00082935,0.00028591,0.00170090,0.00391243,0.00048959,0.11220595,0.28
 978584,-0.00000441,0.00003049,0.00004763,0.00003900,-0.00005609,-0.000
 02267,-0.00000828,0.00008493,0.00001632,-0.00014735,-0.00065320,-0.000
 15094,0.00036873,0.00004833,-0.00029713,0.00091207,-0.00023132,0.00120
 343,0.00013997,0.00023382,0.00008157,0.00004467,-0.00013564,-0.0000450
 5,-0.00005369,0.00013186,0.00007049,-0.00045505,0.00030743,0.00073876,
 -0.00017011,-0.00018504,-0.00077887,0.00022990,0.00010981,-0.00016703,
 -0.00192526,-0.00701519,-0.00309647,-0.01933280,-0.03549145,-0.0527592
 3,-0.00101516,0.00032597,0.00101741,0.00000365,-0.00001025,0.00000895,
 -0.00000542,-0.00000007,-0.00000348,-0.00000619,0.00000759,0.00000335,
 0.00000113,0.00000126,0.00000033,-0.00000819,0.00000579,0.00000420,-0.
 00000037,-0.00000711,-0.00016644,0.00006315,-0.00046279,-0.00015901,0.
 00000432,0.00003475,-0.00016441,-0.00002999,0.00000692,0.00002528,-0.0
 0002024,-0.00003615,0.00001292,0.00001037,-0.00002257,-0.00001834,0.00
 005476,-0.00016834,0.00011022,0.00025421,0.00068482,0.00008383,-0.0088
 7939,-0.02242470,-0.00270487,0.01915195,0.03969095,0.05193823,0.000033
 32,-0.00007505,0.00007015,-0.00003930,0.00007798,-0.00002963,0.0000408
 9,0.00049575,0.00017606,-0.00080441,-0.00230376,0.00011987,0.00010367,
 0.00059268,-0.00028477,0.00030554,-0.00011683,0.00000216,0.00008455,0.
 00009263,-0.00033605,0.00003465,0.00007870,0.00006754,0.00000110,-0.00
 000247,-0.00004143,-0.00000736,0.00040455,0.00020604,-0.00013528,-0.00
 017436,-0.00024596,0.00001204,-0.00017837,-0.00017026,-0.00887251,-0.0
 0979425,0.01789142,-0.10972111,-0.03238056,0.10933091,-0.00362410,0.00
 521235,0.00276119,-0.00001498,-0.00008853,0.00008769,-0.00003582,-0.00
 005853,0.00002622,-0.00003809,0.00004283,0.00001927,-0.00003383,0.0000
 5961,0.00001185,0.00002345,-0.00002924,-0.00001587,-0.00008789,0.00010
 425,-0.00014005,0.00004072,0.00023731,0.00002391,0.00005827,-0.0000419
 6,-0.00002571,-0.00001098,-0.00001740,-0.00001583,-0.00000680,-0.00003
 913,-0.00002800,0.00000684,-0.00002411,-0.00001004,0.00011985,-0.00008
 651,0.00016004,0.00041670,-0.00046170,-0.00069903,0.01226659,0.0056405
 5,-0.01833444,-0.00689798,-0.00226436,0.01078361,0.11677123,-0.0000038
 9,0.00005770,-0.00005202,0.00001175,-0.00004847,0.00002913,-0.00003822
 ,-0.00047021,-0.00014538,0.00090120,0.00196243,-0.00040464,-0.00030608
 ,-0.00010009,0.00042709,-0.00053207,0.00007899,0.00006452,0.00002728,-
 0.00020511,-0.00028181,-0.00007213,0.00012806,0.00011209,0.00000527,0.
 00006185,0.00005822,0.00020061,-0.00003168,-0.00005950,-0.00003053,0.0
 0004477,0.00011647,-0.00009899,-0.00001805,0.00000398,0.00794192,0.007
 38250,-0.01950291,-0.03335968,-0.06517898,0.06157842,0.00494946,-0.004
 03457,-0.00288531,0.00002215,0.00007009,-0.00007929,0.00003465,0.00003
 020,-0.00001948,0.00002801,-0.00003020,-0.00001442,0.00002171,-0.00004
 399,-0.00000277,-0.00002134,0.00002384,0.00001646,0.00005163,-0.000109
 24,0.00005627,-0.00000233,-0.00013475,0.00009196,-0.00039945,-0.000352
 73,-0.00035184,0.00003942,0.00001935,-0.00001274,0.00002119,-0.0000146
 3,0.00003391,-0.00000329,-0.00000603,0.00000438,-0.00003059,0.00001583
 ,-0.00003590,-0.00048819,0.00074157,0.00054912,-0.00108394,-0.00187155
 ,0.00066184,-0.01288060,-0.00596778,0.02518931,0.03510056,0.06800424,0
 .00004484,0.00000790,-0.00002987,-0.00003660,0.00002227,0.00001872,-0.
 00003138,-0.00011311,-0.00005129,0.00012296,0.00111959,0.00058433,-0.0
 0012390,-0.00029362,-0.00001294,0.00024717,0.00009716,0.00029849,0.000
 57386,-0.00031397,-0.00045513,-0.00021938,0.00024752,0.00019223,-0.000
 13329,0.00014628,0.00011832,0.00031716,0.00066873,0.00015741,-0.000262
 20,-0.00019553,-0.00033726,-0.00020016,-0.00029141,-0.00017161,0.00105
 717,0.00193043,-0.00629164,0.11053595,0.06038095,-0.24000805,0.0011745
 0,-0.00157329,0.00060343,-0.00002473,0.00002735,-0.00001918,0.00002035
 ,0.00002900,-0.00001179,0.00001261,-0.00001664,-0.00000563,0.00000791,
 -0.00002164,-0.00000472,0.00000246,0.00000044,0.00000308,-0.00008397,-
 0.00009068,0.00010707,0.00002031,-0.00019206,-0.00005724,-0.00061125,-
 0.00028808,-0.00009387,0.00005205,0.00005520,-0.00001972,0.00000475,-0
 .00002571,0.00009834,-0.00000081,-0.00003178,-0.00000619,0.00013399,-0
 .00012582,0.00017468,0.00010513,-0.00033439,0.00025286,0.01240797,0.00
 558431,-0.01762949,-0.00373994,-0.00127761,0.00517220,-0.12137142,-0.0
 6513212,0.25743087,-0.00000734,0.00101311,-0.00057029,0.00119286,0.003
 22723,0.00417698,0.00668788,0.01383935,-0.00927652,-0.00258368,-0.0000
 8394,-0.00137708,0.00005039,0.00052805,0.00049980,-0.00022380,-0.00037
 167,0.00013438,-0.00005137,-0.00003600,-0.00004569,0.00003568,0.000056
 64,0.00000754,0.00000215,0.00000135,0.00002818,-0.00003742,0.00006294,
 -0.00002265,0.00002647,-0.00003904,0.00000841,0.00000753,-0.00005091,0
 .00002636,0.00007804,-0.00015105,0.00010405,-0.00002821,-0.00001792,-0
 .00004692,0.00047304,-0.00073545,-0.00067355,-0.05064865,-0.02689881,0
 .02821962,0.00108793,-0.01609278,0.01111921,-0.00078332,-0.00143943,-0
 .00167210,0.00027747,0.00182984,0.00533034,-0.00077904,0.00031101,-0.0
 0044907,0.00020560,-0.00005293,-0.00016365,-0.00001216,0.00001298,0.00
 000940,0.00002084,0.00000383,0.00001055,-0.00002078,-0.00004091,-0.000
 00182,0.00000089,-0.00000951,-0.00002714,0.00000935,-0.00000796,0.0000
 0328,-0.00000210,0.00001138,-0.00000510,-0.00000302,0.00001197,-0.0000
 1830,0.00000079,0.00000125,0.00000212,0.00001552,-0.00001973,0.0000007
 1,0.00001590,-0.00000873,-0.00000355,0.04505499,-0.00007991,-0.0010490
 4,0.00072761,0.00397848,-0.00087325,-0.00132388,-0.00295809,-0.0154168
 7,0.01273281,-0.00193583,-0.00196644,0.00038469,-0.00084086,0.00076876
 ,0.00087215,0.00016903,0.00036567,-0.00049203,0.00004862,0.00012170,0.
 00009842,-0.00004119,-0.00009317,-0.00001413,-0.00001994,-0.00001246,-
 0.00001302,0.00003313,-0.00008461,0.00003448,-0.00001974,0.00003821,-0
 .00001248,0.00000766,0.00006227,-0.00003713,-0.00009466,0.00002193,0.0
 0007146,0.00005480,0.00005047,0.00001533,-0.00000959,0.00042734,0.0000
 7730,-0.02707643,-0.25642930,0.13467418,0.00174246,0.00370673,-0.00174
 616,-0.00034765,0.00066188,-0.00123591,0.00159419,0.00154067,0.0002007
 3,0.00012344,0.00015481,-0.00068384,-0.00024764,0.00007231,0.00014220,
 -0.00001325,-0.00000561,0.00002835,-0.00005126,-0.00001470,-0.00001526
 ,0.00001039,0.00005967,0.00001580,0.00002199,0.00001476,0.00002375,-0.
 00001276,0.00001044,-0.00000319,0.00000257,-0.00000978,0.00000594,0.00
 000040,0.00001321,0.00000624,-0.00000359,-0.00000153,-0.00000037,-0.00
 002055,0.00002546,0.00000513,-0.00000430,-0.00000207,0.00000199,0.0261
 2039,0.26754486,0.00014690,-0.00065205,0.00036631,0.00351762,-0.000707
 57,0.00246892,-0.00020946,-0.00575213,0.00742807,-0.00202690,-0.001578
 46,-0.00122400,0.00072544,-0.00020610,-0.00034312,-0.00009241,-0.00004
 438,-0.00013866,-0.00001364,0.00004087,0.00005911,-0.00002093,-0.00001
 964,-0.00000859,-0.00000815,-0.00000184,-0.00000895,-0.00001558,-0.000
 02993,0.00002323,0.00001217,0.00000187,-0.00000867,0.00003133,0.000021
 31,-0.00002611,0.00010114,-0.00011715,0.00005061,0.00000076,0.00001248
 ,-0.00003229,0.00019425,0.00015527,0.00006039,0.02813506,0.13469795,-0
 .13498806,0.00214594,0.01829982,-0.00658344,-0.00213179,-0.00005221,-0
 .00060518,0.00540930,0.00053706,-0.00040793,0.00003687,-0.00108215,-0.
 00057968,-0.00013352,0.00002557,0.00005000,-0.00000874,0.00000634,0.00
 001303,-0.00002077,-0.00000497,-0.00000747,0.00000730,0.00000854,0.000
 01447,-0.00000553,0.00000840,0.00000614,-0.00000225,0.00000203,-0.0000
 0067,-0.00000085,0.00000113,0.00000202,-0.00001179,0.00000785,0.000005
 85,-0.00000354,0.00000343,0.00000225,-0.00000203,0.00000077,-0.0000009
 7,0.00000392,-0.00000798,-0.00000534,-0.03546844,-0.14439738,0.1348893
 3,-0.00069547,-0.00011524,0.00055052,0.00392378,0.00375896,0.00302659,
 -0.00012586,0.00017094,-0.00090313,-0.00055781,-0.00016303,-0.00011036
 ,0.00008290,0.00008717,0.00006521,-0.00003750,0.00000065,-0.00001347,-
 0.00000363,-0.00000534,0.00000130,-0.00000016,-0.00000092,-0.00000056,
 -0.00000079,0.00000295,0.00000371,0.00001230,0.00000712,-0.00000838,-0
 .00000804,0.00000212,0.00000416,-0.00002472,-0.00001869,0.00000037,0.0
 0002788,-0.00001566,-0.00000169,-0.00000241,-0.00000134,-0.00000601,0.
 00002959,-0.00006997,0.00001020,0.00344330,0.00044185,0.00198761,0.001
 04813,0.00203821,0.00196721,-0.00062604,-0.00042785,-0.00174343,-0.175
 30560,-0.00132123,0.15250182,-0.00515598,-0.00130098,0.01164147,-0.000
 07915,0.00010994,-0.00016393,0.00000187,-0.00000171,-0.00000173,0.0000
 0172,0.00000005,-0.00000006,-0.00000206,-0.00000221,0.00000169,-0.0000
 0073,-0.00000107,-0.00000179,0.00000061,-0.00000123,-0.00000017,0.0000
 0078,-0.00000156,0.00000087,-0.00000275,0.00000143,0.00000540,-0.00000
 011,0.00000066,0.00000021,0.00000062,-0.00000124,-0.00000045,0.0000006
 3,-0.00000039,0.00000009,0.00005226,0.00000790,-0.00008658,0.17589812,
 0.00116632,0.00015226,-0.00119985,0.00366248,-0.00292536,0.00116707,0.
 00041132,-0.00111478,-0.00041228,-0.00028426,-0.00012157,0.00002678,-0
 .00001169,0.00011999,0.00001163,0.00000158,0.00003368,-0.00002240,-0.0
 0000280,-0.00000870,0.00000503,0.00000051,0.00000600,-0.00000270,0.000
 00275,0.00000330,-0.00000504,-0.00004657,-0.00000967,0.00002342,0.0000
 2661,-0.00001367,-0.00000989,0.00005474,0.00002079,-0.00001114,-0.0000
 1288,0.00000573,0.00003475,0.00000204,0.00000414,0.00000050,0.00001021
 ,0.00004443,-0.00002083,0.00065018,-0.00399352,0.00365315,-0.01669725,
 0.00264153,0.01895872,-0.00130519,0.00103056,-0.00011467,-0.00024597,-
 0.05575256,0.00812676,0.01690307,0.00534511,-0.01924432,-0.00001610,-0
 .00036078,-0.00006150,0.00000477,-0.00000089,-0.00000261,0.00000153,0.
 00000060,0.,0.00000069,-0.00000206,0.00000060,0.00000014,-0.00000144,-
 0.00000155,0.00000048,0.00000114,-0.00000044,-0.00000240,0.00000620,-0
 .00000113,0.00000151,0.00000186,-0.00000375,-0.00000145,0.00000023,0.0
 0000098,-0.00000125,0.00000038,0.00000064,0.00000120,-0.00000099,-0.00
 000120,-0.00084127,0.00034619,0.00081834,-0.00181332,0.05407154,0.0002
 3544,-0.00020747,-0.00028042,0.00306280,0.00116731,0.00442179,-0.00082
 471,0.00003167,0.00007632,-0.00032769,-0.00015417,-0.00034974,0.000057
 15,0.00004829,0.00009025,-0.00000875,-0.00003852,0.00000044,0.00000473
 ,0.00001241,0.00001003,-0.00000270,-0.00000556,-0.00000228,-0.00000071
 ,0.00000145,-0.00000172,-0.00000301,-0.00000779,0.00000643,0.00000094,
 0.00000225,-0.00000130,0.00000064,0.00000692,-0.00000559,0.00000876,-0
 .00001510,-0.00000619,-0.00000022,-0.00000270,-0.00000207,0.00000281,-
 0.00002738,-0.00000844,0.00195950,0.00364532,0.00154765,0.01046171,-0.
 00182187,-0.00717265,-0.00128848,-0.00113802,-0.00047835,0.15201365,0.
 00941083,-0.21179906,0.00310291,0.00139712,0.00059150,-0.00014962,-0.0
 0010076,-0.00006652,-0.00000906,0.00000765,0.00001036,-0.00000387,-0.0
 0000171,-0.00000030,-0.00000030,0.00000166,0.00000173,0.00000243,0.000
 00147,0.00000153,-0.00000092,0.00000090,-0.00000015,-0.00000012,-0.000
 00066,0.00000073,-0.00000150,0.00000079,0.00000163,-0.00000098,0.00000
 038,0.00000040,-0.00000013,0.00000019,0.00000025,0.00000003,-0.0000001
 0,-0.00000009,0.00034573,-0.00014675,-0.00034528,-0.16619711,-0.011010
 15,0.21536948,-0.00016864,-0.00118371,-0.00262850,0.00282556,-0.017211
 57,0.01103003,-0.00007364,0.00128156,0.00493668,0.00037389,-0.00105774
 ,0.00004909,-0.00034507,0.00000031,0.00032882,-0.00002235,-0.00008944,
 -0.00005008,0.00001074,0.00004108,0.00005132,-0.00001561,-0.00002501,-
 0.00000991,-0.00000246,-0.00000095,-0.00000606,0.00000229,-0.00003526,
 0.00001886,-0.00000052,0.00001333,-0.00000809,0.00000201,0.00002477,-0
 .00002683,-0.00000119,0.00000267,-0.00005985,0.00000411,0.00000017,0.0
 0001654,-0.00002096,0.00005078,-0.00001770,-0.00139902,0.00066881,0.00
 025707,0.00278937,0.00371893,0.00345480,-0.00016043,0.00111601,-0.0000
 7807,0.00564547,0.01433662,-0.00978239,-0.05049775,-0.02176482,0.02733
 129,-0.00031204,-0.00007062,-0.00037441,-0.00002380,0.00000761,0.00001
 922,-0.00001951,-0.00000539,-0.00000593,0.00000504,0.00001451,0.000005
 07,0.00000604,0.00000406,0.00000915,-0.00000412,0.00000315,-0.00000148
 ,-0.00000077,-0.00000346,0.00000456,-0.00000331,-0.00000133,0.00000729
 ,-0.00000075,0.00000003,-0.00000068,-0.00000261,0.00000473,0.00000013,
 -0.00000551,0.00000362,0.00000135,-0.00011468,-0.00013819,-0.00020510,
 -0.00189567,-0.00161971,-0.00243936,0.04342590,-0.00056952,0.00011980,
 -0.00091780,0.00204024,0.00284647,-0.00121493,0.00110398,0.00100914,0.
 00063564,0.00008072,0.00007112,-0.00026485,0.00000530,0.00002021,-0.00
 004300,0.00002844,-0.00000473,0.00000089,0.00000101,-0.00000146,0.0000
 0040,0.00000041,0.00000466,-0.00000204,0.00000083,0.00000217,-0.000003
 95,-0.00003229,-0.00001171,0.00002175,0.00001911,-0.00000931,-0.000007
 63,0.00002532,0.00001496,-0.00001895,-0.00002393,0.00000109,0.00002372
 ,0.00000079,0.00000128,-0.00000016,0.00001097,0.00006772,-0.00003223,-
 0.00009239,0.00032000,-0.00052590,0.00394946,-0.00023422,-0.00065252,0
 .00026643,-0.00107776,0.00029883,-0.00373267,-0.01541309,0.01310462,-0
 .02330746,-0.25849485,0.13479850,-0.00018724,0.00007656,-0.00013550,-0
 .00000185,0.00000356,0.00000110,-0.00000007,0.00000014,-0.00000017,0.0
 0000090,-0.00000062,0.00000026,0.00000042,-0.00000113,0.00000161,-0.00
 000016,0.00000097,-0.00000002,-0.00000137,0.00000559,0.,0.00000122,0.0
 0000064,-0.00000232,-0.00000065,0.00000044,0.00000055,-0.00000060,0.00
 000006,0.00000011,0.00000045,-0.00000032,-0.00000045,-0.00013330,-0.00
 004853,0.00000490,-0.00136697,0.00047031,-0.00105791,0.02191445,0.2702
 6084,-0.00309568,-0.00021631,0.00030701,0.00242963,0.02017025,-0.00757
 296,0.00496983,0.00021347,-0.00089256,-0.00056662,0.00092416,0.0001994
 4,0.00031104,0.00008235,-0.00048119,0.00003699,0.00005432,0.00005468,-
 0.00001491,-0.00005738,-0.00005455,0.00001416,0.00003082,0.00000635,0.
 00000602,0.00000298,0.00000864,-0.00001069,0.00002207,-0.00000950,0.00
 000671,-0.00001295,0.00000306,-0.00003089,-0.00005193,0.00000546,0.000
 02231,-0.00001167,0.00003835,-0.00000242,0.00000454,-0.00002085,0.0000
 8777,-0.00009570,-0.00001161,0.00006992,-0.00108018,-0.00057031,0.0037
 3423,-0.00023684,0.00338657,0.00026727,-0.00062694,0.00017235,-0.00072
 003,-0.00801671,0.00782700,0.02724039,0.13378829,-0.13055766,-0.000236
 95,-0.00014292,-0.00023473,0.00001764,-0.00000708,-0.00002128,0.000021
 55,0.00000735,0.00000812,-0.00000461,-0.00001512,-0.00000406,-0.000006
 95,-0.00000632,-0.00000719,0.00000408,-0.00000362,0.00000160,0.,0.0000
 0475,-0.00000122,0.00000166,-0.00000090,-0.00000545,0.00000049,0.00000
 083,0.00000042,0.00000267,-0.00000615,-0.00000047,0.00000662,-0.000004
 97,-0.00000096,-0.00020479,0.00000297,-0.00012531,-0.00252958,-0.00070
 293,-0.00161035,-0.03182683,-0.14401254,0.13016317\\0.00000568,-0.0000
 0941,-0.00000931,-0.00000724,0.00001681,-0.00000719,0.00000692,-0.0000
 0807,0.00000108,-0.00001184,-0.00003018,-0.00000342,0.00001673,0.00001
 336,-0.00000539,-0.00001186,0.00000051,0.00000445,0.00000035,0.0000108
 4,0.00000609,0.00000099,-0.00000455,0.00000088,-0.00000283,-0.00001236
 ,-0.00000118,-0.00001385,-0.00000049,0.00000753,-0.00000081,0.00000540
 ,-0.00000073,0.00001196,0.00000482,-0.00000778,0.00001362,0.00001407,0
 .00000246,0.00000017,0.00000373,-0.00000365,-0.00000374,0.00000144,0.0
 0001279,-0.00000713,-0.00000255,0.00000686,0.00000308,0.00000171,-0.00
 000809,-0.00000148,-0.00000402,0.00000132,0.00000580,-0.00001290,-0.00
 000120,-0.00000842,0.00000402,0.00000214,-0.00000064,-0.00000003,-0.00
 000320,0.00000517,0.00000485,-0.00000068,0.00000198,-0.00000180,0.0000
 0251,-0.00000035,0.00000534,0.00000669,-0.00000025,0.00000049,0.000003
 66,0.00000219,-0.00000065,0.00000560,-0.00000010,-0.00000604,0.0000015
 8,-0.00000094,0.00000395,-0.00000397,0.00000165,0.00000178,0.00000015,
 -0.00000172,0.00000262,-0.00000279,0.00000183,0.00000354,-0.00000090,0
 .00000028,-0.00000017,0.00000062,-0.00000401,-0.00000192,-0.00000187,-
 0.00000120,-0.00000410,-0.00000509\\\@


 TRUTH, IN SCIENCE, CAN BE DEFINED AS THE WORKING HYPOTHESIS 
 BEST FITTED TO OPEN THE WAY TO THE NEXT BETTER ONE.

                              -- KONRAD LORENZ
 Job cpu time:  0 days  8 hours 36 minutes 19.0 seconds.
 File lengths (MBytes):  RWF=    859 Int=      0 D2E=      0 Chk=     19 Scr=      1
 Normal termination of Gaussian 09 at Sat Mar 23 00:08:02 2019.
