 Entering Gaussian System, Link 0=g09
 Initial command:
 /home/yuheng/proj/yuheng/g09/l1.exe /home/yuheng/proj/yuheng/g09_scratch/Gau-12343.inp -scrdir=/home/yuheng/proj/yuheng/g09_scratch/
 Entering Link 1 = /home/yuheng/proj/yuheng/g09/l1.exe PID=     12344.
  
 Copyright (c) 1988,1990,1992,1993,1995,1998,2003,2009,2010,
            Gaussian, Inc.  All Rights Reserved.
  
 This is part of the Gaussian(R) 09 program.  It is based on
 the Gaussian(R) 03 system (copyright 2003, Gaussian, Inc.),
 the Gaussian(R) 98 system (copyright 1998, Gaussian, Inc.),
 the Gaussian(R) 94 system (copyright 1995, Gaussian, Inc.),
 the Gaussian 92(TM) system (copyright 1992, Gaussian, Inc.),
 the Gaussian 90(TM) system (copyright 1990, Gaussian, Inc.),
 the Gaussian 88(TM) system (copyright 1988, Gaussian, Inc.),
 the Gaussian 86(TM) system (copyright 1986, Carnegie Mellon
 University), and the Gaussian 82(TM) system (copyright 1983,
 Carnegie Mellon University). Gaussian is a federally registered
 trademark of Gaussian, Inc.
  
 This software contains proprietary and confidential information,
 including trade secrets, belonging to Gaussian, Inc.
  
 This software is provided under written license and may be
 used, copied, transmitted, or stored only in accord with that
 written license.
  
 The following legend is applicable only to US Government
 contracts under FAR:
  
                    RESTRICTED RIGHTS LEGEND
  
 Use, reproduction and disclosure by the US Government is
 subject to restrictions as set forth in subparagraphs (a)
 and (c) of the Commercial Computer Software - Restricted
 Rights clause in FAR 52.227-19.
  
 Gaussian, Inc.
 340 Quinnipiac St., Bldg. 40, Wallingford CT 06492
  
  
 ---------------------------------------------------------------
 Warning -- This program may not be used in any manner that
 competes with the business of Gaussian, Inc. or will provide
 assistance to any competitor of Gaussian, Inc.  The licensee
 of this program is prohibited from giving any competitor of
 Gaussian, Inc. access to this program.  By using this program,
 the user acknowledges that Gaussian, Inc. is engaged in the
 business of creating and licensing software in the field of
 computational chemistry and represents and warrants to the
 licensee that it is not a competitor of Gaussian, Inc. and that
 it will not use this program in any manner prohibited above.
 ---------------------------------------------------------------
  

 Cite this work as:
 Gaussian 09, Revision B.01,
 M. J. Frisch, G. W. Trucks, H. B. Schlegel, G. E. Scuseria, 
 M. A. Robb, J. R. Cheeseman, G. Scalmani, V. Barone, B. Mennucci, 
 G. A. Petersson, H. Nakatsuji, M. Caricato, X. Li, H. P. Hratchian, 
 A. F. Izmaylov, J. Bloino, G. Zheng, J. L. Sonnenberg, M. Hada, 
 M. Ehara, K. Toyota, R. Fukuda, J. Hasegawa, M. Ishida, T. Nakajima, 
 Y. Honda, O. Kitao, H. Nakai, T. Vreven, J. A. Montgomery, Jr., 
 J. E. Peralta, F. Ogliaro, M. Bearpark, J. J. Heyd, E. Brothers, 
 K. N. Kudin, V. N. Staroverov, T. Keith, R. Kobayashi, J. Normand, 
 K. Raghavachari, A. Rendell, J. C. Burant, S. S. Iyengar, J. Tomasi, 
 M. Cossi, N. Rega, J. M. Millam, M. Klene, J. E. Knox, J. B. Cross, 
 V. Bakken, C. Adamo, J. Jaramillo, R. Gomperts, R. E. Stratmann, 
 O. Yazyev, A. J. Austin, R. Cammi, C. Pomelli, J. W. Ochterski, 
 R. L. Martin, K. Morokuma, V. G. Zakrzewski, G. A. Voth, 
 P. Salvador, J. J. Dannenberg, S. Dapprich, A. D. Daniels, 
 O. Farkas, J. B. Foresman, J. V. Ortiz, J. Cioslowski, 
 and D. J. Fox, Gaussian, Inc., Wallingford CT, 2010.
 
 ******************************************
 Gaussian 09:  EM64L-G09RevB.01 12-Aug-2010
                22-Mar-2019 
 ******************************************
 %mem=16gb
 %nprocshared=20
 Will use up to   20 processors via shared memory.
 %chk=1b-conf-11.chk
 ----------------------------------------------------------------------
 # m062x/6-31+G(d,p) opt freq=noraman integral(ultrafinegrid) scrf=(ief
 pcm,read,solvent=methanol)
 ----------------------------------------------------------------------
 1/14=-1,18=20,19=15,26=3,38=1,40=2/1,3;
 2/9=110,12=2,17=6,18=5,40=1/2;
 3/5=1,6=6,7=111,11=2,16=1,25=1,30=1,70=2203,71=1,72=3,74=-55,75=-5/1,2,3;
 4//1;
 5/5=2,38=5,53=3/2;
 6/7=2,8=2,9=2,10=2,28=1/1;
 7//1,2,3,16;
 1/14=-1,18=20,19=15/3(2);
 2/9=110/2;
 99//99;
 2/9=110/2;
 3/5=1,6=6,7=111,11=2,16=1,25=1,30=1,70=2205,71=1,72=3,74=-55,75=-5/1,2,3;
 4/5=5,16=3/1;
 5/5=2,38=5,53=3/2;
 7//1,2,3,16;
 1/14=-1,18=20,19=15/3(-5);
 2/9=110/2;
 6/7=2,8=2,9=2,10=2,19=2,28=1/1;
 99/9=1/99;
 ----------------------------------------------------------------------
 Candidate Structure: 1b, Conformer: 11 geometry optimization and frequ
 ency calculation with methanol solvation
 ----------------------------------------------------------------------
 Symbolic Z-matrix:
 Charge =  0 Multiplicity = 1
 O                    -1.65499   0.86705  -2.19745 
 C                    -1.72752   2.09451  -1.60327 
 C                    -0.60699   2.6963   -0.96385 
 C                     0.73746   2.06102  -0.88816 
 N                     1.0379    0.95882  -1.45201 
 C                     2.44406   0.72279  -1.23719 
 C                     3.20944   0.83546  -2.59517 
 O                     2.89536  -0.37328  -3.26369 
 C                     2.80986   1.96389  -3.58918 
 C                     3.27924   3.36951  -3.21664 
 O                     2.2444    4.21448  -2.96846 
 O                     4.45978   3.70021  -3.18283 
 C                     2.79361   1.66678  -0.07449 
 C                     4.21156   2.24623   0.02519 
 O                     1.76913   2.62726  -0.18903 
 C                    -0.75931   3.9677   -0.36696 
 C                    -1.99867   4.63265  -0.40233 
 Cl                   -2.164     6.18453   0.33231 
 C                    -3.10215   4.03336  -1.03592 
 C                    -2.9652    2.76707  -1.63438 
 H                    -0.76809   0.52421  -2.10979 
 H                     2.59233  -0.28989  -0.85405 
 H                     4.2872    0.85192  -2.42517 
 H                     1.95591  -0.48429  -3.18973 
 H                     1.73562   1.97101  -3.77549 
 H                     3.26632   1.75174  -4.55663 
 H                     2.58479   5.07424  -2.77398 
 H                     2.60342   1.13181   0.85885 
 H                     4.46324   2.90354  -0.79943 
 H                     4.31763   2.83104   0.93891 
 H                     4.95583   1.45041   0.05854 
 H                     0.07628   4.44599   0.12292 
 H                    -4.05326   4.54457  -1.06263 
 H                    -3.81445   2.30835  -2.11985 
 

 GradGradGradGradGradGradGradGradGradGradGradGradGradGradGradGradGradGrad
 Berny optimization.
 Initialization pass.
                           ----------------------------
                           !    Initial Parameters    !
                           ! (Angstroms and Degrees)  !
 --------------------------                            --------------------------
 ! Name  Definition              Value          Derivative Info.                !
 --------------------------------------------------------------------------------
 ! R1    R(1,2)                  1.3656         estimate D2E/DX2                !
 ! R2    R(1,21)                 0.9549         estimate D2E/DX2                !
 ! R3    R(2,3)                  1.4236         estimate D2E/DX2                !
 ! R4    R(2,20)                 1.409          estimate D2E/DX2                !
 ! R5    R(3,4)                  1.4889         estimate D2E/DX2                !
 ! R6    R(3,16)                 1.4128         estimate D2E/DX2                !
 ! R7    R(4,5)                  1.274          estimate D2E/DX2                !
 ! R8    R(4,15)                 1.3688         estimate D2E/DX2                !
 ! R9    R(5,6)                  1.4419         estimate D2E/DX2                !
 ! R10   R(6,7)                  1.5629         estimate D2E/DX2                !
 ! R11   R(6,13)                 1.5379         estimate D2E/DX2                !
 ! R12   R(6,22)                 1.0928         estimate D2E/DX2                !
 ! R13   R(7,8)                  1.4165         estimate D2E/DX2                !
 ! R14   R(7,9)                  1.556          estimate D2E/DX2                !
 ! R15   R(7,23)                 1.0912         estimate D2E/DX2                !
 ! R16   R(8,24)                 0.9489         estimate D2E/DX2                !
 ! R17   R(9,10)                 1.528          estimate D2E/DX2                !
 ! R18   R(9,25)                 1.0903         estimate D2E/DX2                !
 ! R19   R(9,26)                 1.0906         estimate D2E/DX2                !
 ! R20   R(10,11)                1.3588         estimate D2E/DX2                !
 ! R21   R(10,12)                1.2265         estimate D2E/DX2                !
 ! R22   R(11,27)                0.9449         estimate D2E/DX2                !
 ! R23   R(13,14)                1.535          estimate D2E/DX2                !
 ! R24   R(13,15)                1.409          estimate D2E/DX2                !
 ! R25   R(13,28)                1.0925         estimate D2E/DX2                !
 ! R26   R(14,29)                1.0841         estimate D2E/DX2                !
 ! R27   R(14,30)                1.09           estimate D2E/DX2                !
 ! R28   R(14,31)                1.0901         estimate D2E/DX2                !
 ! R29   R(16,17)                1.4069         estimate D2E/DX2                !
 ! R30   R(16,32)                1.0803         estimate D2E/DX2                !
 ! R31   R(17,18)                1.7249         estimate D2E/DX2                !
 ! R32   R(17,19)                1.4065         estimate D2E/DX2                !
 ! R33   R(19,20)                1.4073         estimate D2E/DX2                !
 ! R34   R(19,33)                1.0801         estimate D2E/DX2                !
 ! R35   R(20,34)                1.0804         estimate D2E/DX2                !
 ! A1    A(2,1,21)             109.396          estimate D2E/DX2                !
 ! A2    A(1,2,3)              122.2475         estimate D2E/DX2                !
 ! A3    A(1,2,20)             117.7815         estimate D2E/DX2                !
 ! A4    A(3,2,20)             119.9708         estimate D2E/DX2                !
 ! A5    A(2,3,4)              123.5878         estimate D2E/DX2                !
 ! A6    A(2,3,16)             119.0342         estimate D2E/DX2                !
 ! A7    A(4,3,16)             117.3777         estimate D2E/DX2                !
 ! A8    A(3,4,5)              124.0274         estimate D2E/DX2                !
 ! A9    A(3,4,15)             122.0064         estimate D2E/DX2                !
 ! A10   A(5,4,15)             113.9661         estimate D2E/DX2                !
 ! A11   A(4,5,6)              107.7982         estimate D2E/DX2                !
 ! A12   A(5,6,7)              109.6533         estimate D2E/DX2                !
 ! A13   A(5,6,13)             103.5213         estimate D2E/DX2                !
 ! A14   A(5,6,22)             109.6471         estimate D2E/DX2                !
 ! A15   A(7,6,13)             120.0892         estimate D2E/DX2                !
 ! A16   A(7,6,22)             107.7573         estimate D2E/DX2                !
 ! A17   A(13,6,22)            105.8366         estimate D2E/DX2                !
 ! A18   A(6,7,8)              103.8845         estimate D2E/DX2                !
 ! A19   A(6,7,9)              118.7898         estimate D2E/DX2                !
 ! A20   A(6,7,23)             110.4512         estimate D2E/DX2                !
 ! A21   A(8,7,9)              105.0946         estimate D2E/DX2                !
 ! A22   A(8,7,23)             107.781          estimate D2E/DX2                !
 ! A23   A(9,7,23)             110.0118         estimate D2E/DX2                !
 ! A24   A(7,8,24)             106.4131         estimate D2E/DX2                !
 ! A25   A(7,9,10)             115.6264         estimate D2E/DX2                !
 ! A26   A(7,9,25)             111.5254         estimate D2E/DX2                !
 ! A27   A(7,9,26)             108.5511         estimate D2E/DX2                !
 ! A28   A(10,9,25)            109.7738         estimate D2E/DX2                !
 ! A29   A(10,9,26)            105.4655         estimate D2E/DX2                !
 ! A30   A(25,9,26)            105.1926         estimate D2E/DX2                !
 ! A31   A(9,10,11)            112.4954         estimate D2E/DX2                !
 ! A32   A(9,10,12)            123.3973         estimate D2E/DX2                !
 ! A33   A(11,10,12)           124.0797         estimate D2E/DX2                !
 ! A34   A(10,11,27)           109.2103         estimate D2E/DX2                !
 ! A35   A(6,13,14)            119.3902         estimate D2E/DX2                !
 ! A36   A(6,13,15)            101.0518         estimate D2E/DX2                !
 ! A37   A(6,13,28)            107.8036         estimate D2E/DX2                !
 ! A38   A(14,13,15)           114.8099         estimate D2E/DX2                !
 ! A39   A(14,13,28)           106.8698         estimate D2E/DX2                !
 ! A40   A(15,13,28)           106.0623         estimate D2E/DX2                !
 ! A41   A(13,14,29)           113.1984         estimate D2E/DX2                !
 ! A42   A(13,14,30)           110.2943         estimate D2E/DX2                !
 ! A43   A(13,14,31)           110.9204         estimate D2E/DX2                !
 ! A44   A(29,14,30)           106.8414         estimate D2E/DX2                !
 ! A45   A(29,14,31)           107.9017         estimate D2E/DX2                !
 ! A46   A(30,14,31)           107.4331         estimate D2E/DX2                !
 ! A47   A(4,15,13)            107.911          estimate D2E/DX2                !
 ! A48   A(3,16,17)            120.6428         estimate D2E/DX2                !
 ! A49   A(3,16,32)            120.441          estimate D2E/DX2                !
 ! A50   A(17,16,32)           118.9161         estimate D2E/DX2                !
 ! A51   A(16,17,18)           119.9298         estimate D2E/DX2                !
 ! A52   A(16,17,19)           120.0703         estimate D2E/DX2                !
 ! A53   A(18,17,19)           119.9999         estimate D2E/DX2                !
 ! A54   A(17,19,20)           119.9088         estimate D2E/DX2                !
 ! A55   A(17,19,33)           120.0217         estimate D2E/DX2                !
 ! A56   A(20,19,33)           120.0696         estimate D2E/DX2                !
 ! A57   A(2,20,19)            120.3731         estimate D2E/DX2                !
 ! A58   A(2,20,34)            119.8497         estimate D2E/DX2                !
 ! A59   A(19,20,34)           119.7772         estimate D2E/DX2                !
 ! D1    D(21,1,2,3)            -0.4033         estimate D2E/DX2                !
 ! D2    D(21,1,2,20)          179.7572         estimate D2E/DX2                !
 ! D3    D(1,2,3,4)              0.4116         estimate D2E/DX2                !
 ! D4    D(1,2,3,16)          -179.8126         estimate D2E/DX2                !
 ! D5    D(20,2,3,4)          -179.7524         estimate D2E/DX2                !
 ! D6    D(20,2,3,16)            0.0234         estimate D2E/DX2                !
 ! D7    D(1,2,20,19)          179.8376         estimate D2E/DX2                !
 ! D8    D(1,2,20,34)           -0.1318         estimate D2E/DX2                !
 ! D9    D(3,2,20,19)           -0.0057         estimate D2E/DX2                !
 ! D10   D(3,2,20,34)         -179.975          estimate D2E/DX2                !
 ! D11   D(2,3,4,5)              4.2837         estimate D2E/DX2                !
 ! D12   D(2,3,4,15)          -175.5652         estimate D2E/DX2                !
 ! D13   D(16,3,4,5)          -175.4955         estimate D2E/DX2                !
 ! D14   D(16,3,4,15)            4.6557         estimate D2E/DX2                !
 ! D15   D(2,3,16,17)           -0.0197         estimate D2E/DX2                !
 ! D16   D(2,3,16,32)         -179.9014         estimate D2E/DX2                !
 ! D17   D(4,3,16,17)          179.7699         estimate D2E/DX2                !
 ! D18   D(4,3,16,32)           -0.1118         estimate D2E/DX2                !
 ! D19   D(3,4,5,6)            175.7651         estimate D2E/DX2                !
 ! D20   D(15,4,5,6)            -4.3752         estimate D2E/DX2                !
 ! D21   D(3,4,15,13)          167.7624         estimate D2E/DX2                !
 ! D22   D(5,4,15,13)          -12.1005         estimate D2E/DX2                !
 ! D23   D(4,5,6,7)           -111.9298         estimate D2E/DX2                !
 ! D24   D(4,5,6,13)            17.3729         estimate D2E/DX2                !
 ! D25   D(4,5,6,22)           129.9468         estimate D2E/DX2                !
 ! D26   D(5,6,7,8)            -75.5875         estimate D2E/DX2                !
 ! D27   D(5,6,7,9)             40.6391         estimate D2E/DX2                !
 ! D28   D(5,6,7,23)           169.0774         estimate D2E/DX2                !
 ! D29   D(13,6,7,8)           164.8174         estimate D2E/DX2                !
 ! D30   D(13,6,7,9)           -78.9561         estimate D2E/DX2                !
 ! D31   D(13,6,7,23)           49.4822         estimate D2E/DX2                !
 ! D32   D(22,6,7,8)            43.7041         estimate D2E/DX2                !
 ! D33   D(22,6,7,9)           159.9306         estimate D2E/DX2                !
 ! D34   D(22,6,7,23)          -71.6311         estimate D2E/DX2                !
 ! D35   D(5,6,13,14)         -150.042          estimate D2E/DX2                !
 ! D36   D(5,6,13,15)          -23.1217         estimate D2E/DX2                !
 ! D37   D(5,6,13,28)           87.9057         estimate D2E/DX2                !
 ! D38   D(7,6,13,14)          -27.4179         estimate D2E/DX2                !
 ! D39   D(7,6,13,15)           99.5024         estimate D2E/DX2                !
 ! D40   D(7,6,13,28)         -149.4703         estimate D2E/DX2                !
 ! D41   D(22,6,13,14)          94.6385         estimate D2E/DX2                !
 ! D42   D(22,6,13,15)        -138.4413         estimate D2E/DX2                !
 ! D43   D(22,6,13,28)         -27.4139         estimate D2E/DX2                !
 ! D44   D(6,7,8,24)            47.5255         estimate D2E/DX2                !
 ! D45   D(9,7,8,24)           -77.9597         estimate D2E/DX2                !
 ! D46   D(23,7,8,24)          164.7356         estimate D2E/DX2                !
 ! D47   D(6,7,9,10)            75.0851         estimate D2E/DX2                !
 ! D48   D(6,7,9,25)           -51.2529         estimate D2E/DX2                !
 ! D49   D(6,7,9,26)          -166.6898         estimate D2E/DX2                !
 ! D50   D(8,7,9,10)          -169.3322         estimate D2E/DX2                !
 ! D51   D(8,7,9,25)            64.3297         estimate D2E/DX2                !
 ! D52   D(8,7,9,26)           -51.1071         estimate D2E/DX2                !
 ! D53   D(23,7,9,10)          -53.5565         estimate D2E/DX2                !
 ! D54   D(23,7,9,25)         -179.8945         estimate D2E/DX2                !
 ! D55   D(23,7,9,26)           64.6686         estimate D2E/DX2                !
 ! D56   D(7,9,10,11)         -115.9389         estimate D2E/DX2                !
 ! D57   D(7,9,10,12)           65.9046         estimate D2E/DX2                !
 ! D58   D(25,9,10,11)          11.2822         estimate D2E/DX2                !
 ! D59   D(25,9,10,12)        -166.8743         estimate D2E/DX2                !
 ! D60   D(26,9,10,11)         124.1381         estimate D2E/DX2                !
 ! D61   D(26,9,10,12)         -54.0184         estimate D2E/DX2                !
 ! D62   D(9,10,11,27)        -177.9919         estimate D2E/DX2                !
 ! D63   D(12,10,11,27)          0.1498         estimate D2E/DX2                !
 ! D64   D(6,13,14,29)          64.6051         estimate D2E/DX2                !
 ! D65   D(6,13,14,30)        -175.7545         estimate D2E/DX2                !
 ! D66   D(6,13,14,31)         -56.8516         estimate D2E/DX2                !
 ! D67   D(15,13,14,29)        -55.5775         estimate D2E/DX2                !
 ! D68   D(15,13,14,30)         64.0629         estimate D2E/DX2                !
 ! D69   D(15,13,14,31)       -177.0342         estimate D2E/DX2                !
 ! D70   D(28,13,14,29)       -172.8811         estimate D2E/DX2                !
 ! D71   D(28,13,14,30)        -53.2407         estimate D2E/DX2                !
 ! D72   D(28,13,14,31)         65.6622         estimate D2E/DX2                !
 ! D73   D(6,13,15,4)           21.2651         estimate D2E/DX2                !
 ! D74   D(14,13,15,4)         151.1436         estimate D2E/DX2                !
 ! D75   D(28,13,15,4)         -91.0949         estimate D2E/DX2                !
 ! D76   D(3,16,17,18)        -179.9969         estimate D2E/DX2                !
 ! D77   D(3,16,17,19)          -0.0017         estimate D2E/DX2                !
 ! D78   D(32,16,17,18)         -0.1134         estimate D2E/DX2                !
 ! D79   D(32,16,17,19)        179.8818         estimate D2E/DX2                !
 ! D80   D(16,17,19,20)          0.0197         estimate D2E/DX2                !
 ! D81   D(16,17,19,33)       -179.9984         estimate D2E/DX2                !
 ! D82   D(18,17,19,20)       -179.9851         estimate D2E/DX2                !
 ! D83   D(18,17,19,33)         -0.0032         estimate D2E/DX2                !
 ! D84   D(17,19,20,2)          -0.016          estimate D2E/DX2                !
 ! D85   D(17,19,20,34)        179.9533         estimate D2E/DX2                !
 ! D86   D(33,19,20,2)        -179.9979         estimate D2E/DX2                !
 ! D87   D(33,19,20,34)         -0.0285         estimate D2E/DX2                !
 --------------------------------------------------------------------------------
 Trust Radius=3.00D-01 FncErr=1.00D-07 GrdErr=1.00D-06
 Number of steps in this run=    191 maximum allowed number of steps=    204.
 GradGradGradGradGradGradGradGradGradGradGradGradGradGradGradGradGradGrad

                          Input orientation:                          
 ---------------------------------------------------------------------
 Center     Atomic      Atomic             Coordinates (Angstroms)
 Number     Number       Type             X           Y           Z
 ---------------------------------------------------------------------
      1          8           0       -1.654992    0.867050   -2.197447
      2          6           0       -1.727522    2.094508   -1.603273
      3          6           0       -0.606990    2.696297   -0.963846
      4          6           0        0.737461    2.061016   -0.888156
      5          7           0        1.037901    0.958824   -1.452005
      6          6           0        2.444059    0.722789   -1.237191
      7          6           0        3.209435    0.835458   -2.595172
      8          8           0        2.895361   -0.373282   -3.263689
      9          6           0        2.809863    1.963894   -3.589175
     10          6           0        3.279237    3.369509   -3.216644
     11          8           0        2.244397    4.214476   -2.968463
     12          8           0        4.459777    3.700209   -3.182828
     13          6           0        2.793614    1.666779   -0.074485
     14          6           0        4.211562    2.246233    0.025189
     15          8           0        1.769128    2.627260   -0.189032
     16          6           0       -0.759306    3.967699   -0.366963
     17          6           0       -1.998674    4.632648   -0.402328
     18         17           0       -2.164001    6.184526    0.332307
     19          6           0       -3.102147    4.033361   -1.035918
     20          6           0       -2.965196    2.767071   -1.634377
     21          1           0       -0.768089    0.524211   -2.109789
     22          1           0        2.592328   -0.289892   -0.854052
     23          1           0        4.287199    0.851920   -2.425174
     24          1           0        1.955910   -0.484291   -3.189733
     25          1           0        1.735621    1.971013   -3.775487
     26          1           0        3.266317    1.751744   -4.556625
     27          1           0        2.584790    5.074236   -2.773982
     28          1           0        2.603418    1.131809    0.858852
     29          1           0        4.463239    2.903538   -0.799425
     30          1           0        4.317625    2.831041    0.938914
     31          1           0        4.955830    1.450405    0.058539
     32          1           0        0.076277    4.445986    0.122924
     33          1           0       -4.053262    4.544568   -1.062627
     34          1           0       -3.814451    2.308348   -2.119852
 ---------------------------------------------------------------------
                    Distance matrix (angstroms):
                    1          2          3          4          5
     1  O    0.000000
     2  C    1.365634   0.000000
     3  C    2.442586   1.423590   0.000000
     4  C    2.977185   2.566838   1.488912   0.000000
     5  N    2.795671   2.993363   2.441880   1.273977   0.000000
     6  C    4.212496   4.406554   3.643947   2.196623   1.441922
     7  C    4.880762   5.190628   4.548521   3.244465   2.457155
     8  O    4.835391   5.497092   5.194040   4.028088   2.916653
     9  C    4.803634   4.954667   4.370772   3.405846   2.952543
    10  C    5.625627   5.412599   4.542144   3.687090   3.734828
    11  O    5.196630   4.704694   3.801811   3.352003   3.788740
    12  O    6.810886   6.584523   5.621730   4.669915   4.713828
    13  C    4.993659   4.791745   3.662646   2.246163   2.341215
    14  C    6.423295   6.160165   4.939554   3.596927   3.729832
    15  O    4.342426   3.809260   2.500208   1.368847   2.216635
    16  C    3.710384   2.444330   1.412775   2.479394   3.668869
    17  C    4.185725   2.820983   2.449804   3.786259   4.880532
    18  Cl   5.910524   4.545903   4.033861   5.187615   6.383095
    19  C    3.670004   2.443489   2.831739   4.319093   5.173577
    20  C    2.375660   1.408952   2.452704   3.842529   4.396340
    21  H    0.954892   1.908639   2.461117   2.474033   1.970576
    22  H    4.602494   4.990771   4.377787   2.994739   2.081606
    23  H    5.946572   6.196484   5.430496   4.052774   3.393586
    24  H    3.981126   4.768095   4.651792   3.641492   2.438241
    25  H    3.899385   4.089881   3.730843   3.056322   2.628670
    26  H    5.528805   5.811902   5.366819   4.466366   3.902976
    27  H    6.000713   5.370789   4.372487   4.006053   4.590981
    28  H    5.248344   5.074041   4.009560   2.719790   2.796574
    29  H    6.598068   6.294936   5.077126   3.820882   3.992582
    30  H    7.026107   6.599166   5.281144   4.092517   4.469707
    31  H    7.009475   6.916913   5.791587   4.366201   4.227714
    32  H    4.603281   3.429708   2.170100   2.673486   3.945304
    33  H    4.534717   3.421134   3.911861   5.399027   6.239320
    34  H    2.597426   2.160522   3.431422   4.722092   5.080606
                    6          7          8          9         10
     6  C    0.000000
     7  C    1.562884   0.000000
     8  O    2.347709   1.416549   0.000000
     9  C    2.684396   1.555978   2.361280   0.000000
    10  C    3.408942   2.610079   3.762720   1.528020   0.000000
    11  O    3.902441   3.533894   4.643106   2.402115   1.358844
    12  O    4.088233   3.180486   4.364317   2.429429   1.226450
    13  C    1.537918   2.686608   3.787245   3.527263   3.606700
    14  C    2.653027   3.140197   4.405787   3.886914   3.555342
    15  O    2.276220   3.327844   4.441303   3.617203   3.463784
    16  C    4.642013   5.525102   6.371164   5.209304   4.978789
    17  C    5.976778   6.808202   7.562956   6.356121   6.113284
    18  Cl   7.316291   8.127514   9.029572   7.611247   7.081540
    19  C    6.462260   7.245269   7.768627   6.764146   6.776306
    20  C    5.796282   6.540667   6.845627   6.149604   6.469887
    21  H    3.334480   4.019100   3.944343   4.130740   5.069684
    22  H    1.092841   2.163038   2.430048   3.550742   4.409637
    23  H    2.196621   1.091213   2.035053   2.184927   2.825007
    24  H    2.346860   1.914828   0.948873   2.623433   4.074763
    25  H    2.915972   2.203351   2.665080   1.090302   2.156582
    26  H    3.571204   2.165667   2.514961   1.090558   2.100686
    27  H    4.616993   4.288286   5.478295   3.223263   1.893225
    28  H    2.141516   3.519284   4.398394   4.529893   4.698266
    29  H    3.004063   3.012256   4.389577   3.376283   2.731655
    30  H    3.562360   4.207161   5.472878   4.850658   4.317043
    31  H    2.918447   3.235775   4.313765   4.263175   4.149789
    32  H    4.617196   5.499149   6.530063   5.235738   4.750839
    33  H    7.540003   8.297768   8.792797   7.755373   7.732147
    34  H    6.516290   7.192379   7.315810   6.794048   7.255992
                   11         12         13         14         15
    11  O    0.000000
    12  O    2.284367   0.000000
    13  C    3.894548   4.070962   0.000000
    14  C    4.087257   3.530868   1.535017   0.000000
    15  O    3.235795   4.165768   1.408977   2.481241   0.000000
    16  C    3.981323   5.936285   4.242996   5.275107   2.867301
    17  C    4.976301   7.093110   5.645342   6.666692   4.273571
    18  Cl   5.848945   7.899522   6.719633   7.500152   5.328737
    19  C    5.687976   7.867840   6.425345   7.603296   5.140395
    20  C    5.569078   7.641902   6.066943   7.384530   4.952009
    21  H    4.840501   6.210391   4.258363   5.685105   3.814393
    22  H    4.988098   4.983118   2.115845   3.134791   3.103173
    23  H    3.971774   2.952384   2.901815   2.820303   3.806947
    24  H    4.712812   4.876417   3.877321   4.783247   4.326759
    25  H    2.437882   3.280608   3.861259   4.544356   3.646154
    26  H    3.103486   2.666117   4.507798   4.704363   4.699359
    27  H    0.944922   2.360229   4.352201   4.298761   3.651707
    28  H    4.927481   5.135944   1.092468   2.126749   2.007604
    29  H    3.368463   2.513027   2.200627   1.084149   2.776174
    30  H    4.634626   4.214786   2.169123   1.090020   2.794392
    31  H    4.914743   3.976700   2.177083   1.090133   3.406075
    32  H    3.782990   5.540691   3.891900   4.684981   2.504162
    33  H    6.587995   8.813627   7.492517   8.647138   6.191887
    34  H    6.408050   8.457544   6.947061   8.307945   5.916597
                   16         17         18         19         20
    16  C    0.000000
    17  C    1.406926   0.000000
    18  Cl   2.715965   1.724919   0.000000
    19  C    2.437358   1.406497   2.716555   0.000000
    20  C    2.813147   2.435670   4.023526   1.407267   0.000000
    21  H    3.859421   4.616169   6.320725   4.349156   3.175487
    22  H    5.440385   6.746314   8.120850   7.151967   6.390618
    23  H    6.277860   7.609074   8.812399   8.164192   7.542572
    24  H    5.929641   7.042118   8.593693   7.115619   6.099817
    25  H    4.672200   5.692755   7.059371   5.929799   5.226446
    26  H    6.218470   7.299173   8.546319   7.626171   6.957167
    27  H    4.266280   5.179564   5.782110   6.037014   6.117520
    28  H    4.566487   5.918251   6.966741   6.675525   6.316624
    29  H    5.347377   6.701032   7.481043   7.652940   7.476457
    30  H    5.364004   6.703756   7.322930   7.771650   7.724338
    31  H    6.259441   7.661866   8.554463   8.532320   8.206231
    32  H    1.080253   2.148524   2.843450   3.408160   3.893253
    33  H    3.415680   2.159881   2.864369   1.080123   2.161083
    34  H    3.893581   3.413108   4.874610   2.158231   1.080438
                   21         22         23         24         25
    21  H    0.000000
    22  H    3.678592   0.000000
    23  H    5.075707   2.577741   0.000000
    24  H    3.098956   2.428626   2.793728   0.000000
    25  H    3.337117   3.792153   3.096169   2.533802   0.000000
    26  H    4.875477   4.281540   2.528827   2.930088   1.732422
    27  H    5.690842   5.697373   4.565941   5.609417   3.369584
    28  H    4.533108   2.226072   3.701119   4.407050   4.788991
    29  H    5.894493   3.701525   2.623583   4.845375   4.143241
    30  H    6.362432   3.991441   3.903195   5.797831   5.443525
    31  H    6.190536   3.073694   2.640849   4.826369   5.033938
    32  H    4.591109   5.451012   6.094422   6.230116   4.906783
    33  H    5.296431   8.220667   9.222552   8.119369   6.891586
    34  H    3.530378   7.028508   8.237180   6.499273   5.801571
                   26         27         28         29         30
    26  H    0.000000
    27  H    3.831612   0.000000
    28  H    5.491006   5.361022   0.000000
    29  H    4.108017   3.484161   3.057424   0.000000
    30  H    5.698340   4.671214   2.415017   1.745933   0.000000
    31  H    4.923921   5.174665   2.505164   1.757937   1.757419
    32  H    6.271640   3.883220   4.232234   4.740813   4.611173
    33  H    8.578119   6.875538   7.723367   8.677156   8.775767
    34  H    7.508991   7.002022   7.172584   8.403448   8.704017
                   31         32         33         34
    31  H    0.000000
    32  H    5.726053   0.000000
    33  H    9.591381   4.297481   0.000000
    34  H    9.077405   4.973661   2.485042   0.000000
 Stoichiometry    C13H14ClNO5
 Framework group  C1[X(C13H14ClNO5)]
 Deg. of freedom    96
 Full point group                 C1      NOp   1
 Largest Abelian subgroup         C1      NOp   1
 Largest concise Abelian subgroup C1      NOp   1
                         Standard orientation:                         
 ---------------------------------------------------------------------
 Center     Atomic      Atomic             Coordinates (Angstroms)
 Number     Number       Type             X           Y           Z
 ---------------------------------------------------------------------
      1          8           0        1.064011    2.964187   -0.316393
      2          6           0        1.826191    1.836712   -0.203084
      3          6           0        1.303920    0.614967    0.307974
      4          6           0       -0.106181    0.444838    0.754664
      5          7           0       -1.000353    1.346421    0.651601
      6          6           0       -2.250279    0.780197    1.094562
      7          6           0       -3.224363    0.641897   -0.119786
      8          8           0       -3.667313    1.967065   -0.352884
      9          6           0       -2.655873    0.158605   -1.485186
     10          6           0       -2.339690   -1.333426   -1.578542
     11          8           0       -1.014950   -1.573634   -1.762444
     12          8           0       -3.196513   -2.209509   -1.528404
     13          6           0       -1.820082   -0.467614    1.883922
     14          6           0       -2.753173   -1.685399    1.935090
     15          8           0       -0.551767   -0.717737    1.323536
     16          6           0        2.154475   -0.509378    0.399277
     17          6           0        3.498520   -0.426767   -0.008348
     18         17           0        4.520721   -1.811031    0.111094
     19          6           0        4.008860    0.782862   -0.512912
     20          6           0        3.173284    1.911107   -0.609227
     21          1           0        0.177505    2.779453   -0.013407
     22          1           0       -2.718197    1.447189    1.822901
     23          1           0       -4.094252    0.043328    0.155449
     24          1           0       -2.891317    2.513134   -0.352419
     25          1           0       -1.783065    0.739983   -1.783456
     26          1           0       -3.402171    0.346620   -2.257848
     27          1           0       -0.876249   -2.504713   -1.844491
     28          1           0       -1.639203   -0.163165    2.917401
     29          1           0       -2.903530   -2.149192    0.966757
     30          1           0       -2.339612   -2.451258    2.591268
     31          1           0       -3.731153   -1.410101    2.330256
     32          1           0        1.781526   -1.448132    0.782156
     33          1           0        5.040823    0.845397   -0.825651
     34          1           0        3.567731    2.839456   -0.996429
 ---------------------------------------------------------------------
 Rotational constants (GHZ):      0.4906702      0.1906899      0.1684562
 Standard basis: 6-31+G(d,p) (6D, 7F)
 There are   454 symmetry adapted basis functions of A   symmetry.
 Integral buffers will be    131072 words long.
 Raffenetti 2 integral format.
 Two-electron integral symmetry is turned on.
   454 basis functions,   762 primitive gaussians,   454 cartesian basis functions
    78 alpha electrons       78 beta electrons
       nuclear repulsion energy      1738.1509590698 Hartrees.
 NAtoms=   34 NActive=   34 NUniq=   34 SFac= 1.00D+00 NAtFMM=   50 NAOKFM=F Big=F
 Using the following non-standard input for PCM:
 radii=UA0
 --- end of non-standard input.
 ------------------------------------------------------------------------------
 United Atom Topological Model (UA0  parameters set).
  Nord Group  Hybr  Charge Alpha Radius          Bonded to
    1   OH    *     0.00   1.10  1.850   C2   [s]
    2   C     *     0.00   1.10  1.925   O1   [s]  C3   [s]  C20  [s]
    3   C     *     0.00   1.10  1.925   C2   [s]  C4   [s]  C16  [s]
    4   C     *     0.00   1.10  1.925   C3   [s]  N5   [d]  O15  [s]
    5   N     *     0.00   1.10  1.830   C4   [d]  C6   [s]
    6   CH    *     0.00   1.10  2.125   N5   [s]  C7   [s]  C13  [s]
    7   CH    *     0.00   1.10  2.125   C6   [s]  O8   [s]  C9   [s]
    8   OH    *     0.00   1.10  1.850   C7   [s]
    9   CH2   *     0.00   1.10  2.325   C7   [s]  C10  [s]
   10   C     *     0.00   1.10  1.925   C9   [s]  O11  [s]  O12  [d]
   11   OH    *     0.00   1.10  1.850   C10  [s]
   12   O     *     0.00   1.10  1.750   C10  [d]
   13   CH    *     0.00   1.10  2.125   C6   [s]  C14  [s]  O15  [s]
   14   CH3   *     0.00   1.10  2.525   C13  [s]
   15   O     *     0.00   1.10  1.750   C4   [s]  C13  [s]
   16   CH    *     0.00   1.10  2.125   C3   [s]  C17  [s]
   17   C     *     0.00   1.10  1.925   C16  [s] Cl18  [s]  C19  [s]
   18  Cl     *     0.00   1.10  1.973   C17  [s]
   19   CH    *     0.00   1.10  2.125   C17  [s]  C20  [s]
   20   CH    *     0.00   1.10  2.125   C2   [s]  C19  [s]
 ------------------------------------------------------------------------------
 Polarizable Continuum Model (PCM)
 =================================
 Model                : PCM.
 Atomic radii         : UA0 (Simple United Atom Topological Model).
 Polarization charges : Total charges.
 Charge compensation  : None.
 Solution method      : Matrix inversion.
 Cavity type          : Scaled VdW (van der Waals Surface) (Alpha=1.100).
 Cavity algorithm     : GePol (No added spheres)
                        Default sphere list used, NSphG=   20.
                        Lebedev-Laikov grids with approx.  5.0 points / Ang**2.
                        Smoothing algorithm: Karplus/York (Gamma=1.0000).
                        Polarization charges: spherical gaussians, with
                                              point-specific exponents (IZeta= 3).
                        Self-potential: point-specific (ISelfS= 7).
                        Self-field    : sphere-specific E.n sum rule (ISelfD= 2).
 1st derivatives      : Analytical E(r).r(x)/FMM algorithm (CHGder, D1EAlg=3).
                        Cavity 1st derivative terms included.
 Solvent              : Methanol, Eps=  32.613000 Eps(inf)=   1.765709
 ------------------------------------------------------------------------------
 Spheres list:
 ISph  on   Nord    Re0     Alpha      Xe            Ye            Ze
    1   O      1    1.850   1.100      1.064011      2.964187     -0.316393
    2   C      2    1.925   1.100      1.826191      1.836712     -0.203084
    3   C      3    1.925   1.100      1.303920      0.614967      0.307974
    4   C      4    1.925   1.100     -0.106181      0.444838      0.754664
    5   N      5    1.830   1.100     -1.000353      1.346421      0.651601
    6   C      6    2.125   1.100     -2.250279      0.780197      1.094562
    7   C      7    2.125   1.100     -3.224363      0.641897     -0.119786
    8   O      8    1.850   1.100     -3.667313      1.967065     -0.352884
    9   C      9    2.325   1.100     -2.655873      0.158605     -1.485186
   10   C     10    1.925   1.100     -2.339690     -1.333426     -1.578542
   11   O     11    1.850   1.100     -1.014950     -1.573634     -1.762444
   12   O     12    1.750   1.100     -3.196513     -2.209509     -1.528404
   13   C     13    2.125   1.100     -1.820082     -0.467614      1.883922
   14   C     14    2.525   1.100     -2.753173     -1.685399      1.935090
   15   O     15    1.750   1.100     -0.551767     -0.717737      1.323536
   16   C     16    2.125   1.100      2.154475     -0.509378      0.399277
   17   C     17    1.925   1.100      3.498520     -0.426767     -0.008348
   18  Cl     18    1.973   1.100      4.520721     -1.811031      0.111094
   19   C     19    2.125   1.100      4.008860      0.782862     -0.512912
   20   C     20    2.125   1.100      3.173284      1.911107     -0.609227
 ------------------------------------------------------------------------------
 One-electron integrals computed using PRISM.
 NBasis=   454 RedAO= T  NBF=   454
 NBsUse=   452 1.00D-06 NBFU=   452
 Harris functional with IExCor= 1009 diagonalized for initial guess.
 ExpMin= 4.38D-02 ExpMax= 2.52D+04 ExpMxC= 3.78D+03 IAcc=3 IRadAn=         5 AccDes= 0.00D+00
 HarFok:  IExCor= 1009 AccDes= 0.00D+00 IRadAn=         5 IDoV= 1
 ScaDFX=  1.000000  1.000000  1.000000  1.000000
 FoFCou: FMM=F IPFlag=           0 FMFlag=      100000 FMFlg1=           0
         NFxFlg=           0 DoJE=T BraDBF=F KetDBF=T FulRan=T
         Omega=  0.000000  0.000000  1.000000  0.000000  0.000000 ICntrl=     500 IOpCl=  0
         NMat0=    1 NMatS0=    1 NMatT0=    0 NMatD0=    1 NMtDS0=    0 NMtDT0=    0
         I1Cent=           4 NGrid=           0.
 Petite list used in FoFCou.
 Initial guess orbital symmetries:
       Occupied  (A) (A) (A) (A) (A) (A) (A) (A) (A) (A) (A) (A)
                 (A) (A) (A) (A) (A) (A) (A) (A) (A) (A) (A) (A)
                 (A) (A) (A) (A) (A) (A) (A) (A) (A) (A) (A) (A)
                 (A) (A) (A) (A) (A) (A) (A) (A) (A) (A) (A) (A)
                 (A) (A) (A) (A) (A) (A) (A) (A) (A) (A) (A) (A)
                 (A) (A) (A) (A) (A) (A) (A) (A) (A) (A) (A) (A)
                 (A) (A) (A) (A) (A) (A)
       Virtual   (A) (A) (A) (A) (A) (A) (A) (A) (A) (A) (A) (A)
                 (A) (A) (A) (A) (A) (A) (A) (A) (A) (A) (A) (A)
                 (A) (A) (A) (A) (A) (A) (A) (A) (A) (A) (A) (A)
                 (A) (A) (A) (A) (A) (A) (A) (A) (A) (A) (A) (A)
                 (A) (A) (A) (A) (A) (A) (A) (A) (A) (A) (A) (A)
                 (A) (A) (A) (A) (A) (A) (A) (A) (A) (A) (A) (A)
                 (A) (A) (A) (A) (A) (A) (A) (A) (A) (A) (A) (A)
                 (A) (A) (A) (A) (A) (A) (A) (A) (A) (A) (A) (A)
                 (A) (A) (A) (A) (A) (A) (A) (A) (A) (A) (A) (A)
                 (A) (A) (A) (A) (A) (A) (A) (A) (A) (A) (A) (A)
                 (A) (A) (A) (A) (A) (A) (A) (A) (A) (A) (A) (A)
                 (A) (A) (A) (A) (A) (A) (A) (A) (A) (A) (A) (A)
                 (A) (A) (A) (A) (A) (A) (A) (A) (A) (A) (A) (A)
                 (A) (A) (A) (A) (A) (A) (A) (A) (A) (A) (A) (A)
                 (A) (A) (A) (A) (A) (A) (A) (A) (A) (A) (A) (A)
                 (A) (A) (A) (A) (A) (A) (A) (A) (A) (A) (A) (A)
                 (A) (A) (A) (A) (A) (A) (A) (A) (A) (A) (A) (A)
                 (A) (A) (A) (A) (A) (A) (A) (A) (A) (A) (A) (A)
                 (A) (A) (A) (A) (A) (A) (A) (A) (A) (A) (A) (A)
                 (A) (A) (A) (A) (A) (A) (A) (A) (A) (A) (A) (A)
                 (A) (A) (A) (A) (A) (A) (A) (A) (A) (A) (A) (A)
                 (A) (A) (A) (A) (A) (A) (A) (A) (A) (A) (A) (A)
                 (A) (A) (A) (A) (A) (A) (A) (A) (A) (A) (A) (A)
                 (A) (A) (A) (A) (A) (A) (A) (A) (A) (A) (A) (A)
                 (A) (A) (A) (A) (A) (A) (A) (A) (A) (A) (A) (A)
                 (A) (A) (A) (A) (A) (A) (A) (A) (A) (A) (A) (A)
                 (A) (A) (A) (A) (A) (A) (A) (A) (A) (A) (A) (A)
                 (A) (A) (A) (A) (A) (A) (A) (A) (A) (A) (A) (A)
                 (A) (A) (A) (A) (A) (A) (A) (A) (A) (A) (A) (A)
                 (A) (A) (A) (A) (A) (A) (A) (A) (A) (A) (A) (A)
                 (A) (A) (A) (A) (A) (A) (A) (A) (A) (A) (A) (A)
                 (A) (A)
 The electronic state of the initial guess is 1-A.
 Requested convergence on RMS density matrix=1.00D-08 within 128 cycles.
 Requested convergence on MAX density matrix=1.00D-06.
 Requested convergence on             energy=1.00D-06.
 No special actions if energy rises.
 Error on total polarization charges =  0.01472
 SCF Done:  E(RM062X) =  -1394.55573356     A.U. after   15 cycles
             Convg  =    0.9460D-08             -V/T =  2.0067

 **********************************************************************

            Population analysis using the SCF density.

 **********************************************************************

 Orbital symmetries:
       Occupied  (A) (A) (A) (A) (A) (A) (A) (A) (A) (A) (A) (A)
                 (A) (A) (A) (A) (A) (A) (A) (A) (A) (A) (A) (A)
                 (A) (A) (A) (A) (A) (A) (A) (A) (A) (A) (A) (A)
                 (A) (A) (A) (A) (A) (A) (A) (A) (A) (A) (A) (A)
                 (A) (A) (A) (A) (A) (A) (A) (A) (A) (A) (A) (A)
                 (A) (A) (A) (A) (A) (A) (A) (A) (A) (A) (A) (A)
                 (A) (A) (A) (A) (A) (A)
       Virtual   (A) (A) (A) (A) (A) (A) (A) (A) (A) (A) (A) (A)
                 (A) (A) (A) (A) (A) (A) (A) (A) (A) (A) (A) (A)
                 (A) (A) (A) (A) (A) (A) (A) (A) (A) (A) (A) (A)
                 (A) (A) (A) (A) (A) (A) (A) (A) (A) (A) (A) (A)
                 (A) (A) (A) (A) (A) (A) (A) (A) (A) (A) (A) (A)
                 (A) (A) (A) (A) (A) (A) (A) (A) (A) (A) (A) (A)
                 (A) (A) (A) (A) (A) (A) (A) (A) (A) (A) (A) (A)
                 (A) (A) (A) (A) (A) (A) (A) (A) (A) (A) (A) (A)
                 (A) (A) (A) (A) (A) (A) (A) (A) (A) (A) (A) (A)
                 (A) (A) (A) (A) (A) (A) (A) (A) (A) (A) (A) (A)
                 (A) (A) (A) (A) (A) (A) (A) (A) (A) (A) (A) (A)
                 (A) (A) (A) (A) (A) (A) (A) (A) (A) (A) (A) (A)
                 (A) (A) (A) (A) (A) (A) (A) (A) (A) (A) (A) (A)
                 (A) (A) (A) (A) (A) (A) (A) (A) (A) (A) (A) (A)
                 (A) (A) (A) (A) (A) (A) (A) (A) (A) (A) (A) (A)
                 (A) (A) (A) (A) (A) (A) (A) (A) (A) (A) (A) (A)
                 (A) (A) (A) (A) (A) (A) (A) (A) (A) (A) (A) (A)
                 (A) (A) (A) (A) (A) (A) (A) (A) (A) (A) (A) (A)
                 (A) (A) (A) (A) (A) (A) (A) (A) (A) (A) (A) (A)
                 (A) (A) (A) (A) (A) (A) (A) (A) (A) (A) (A) (A)
                 (A) (A) (A) (A) (A) (A) (A) (A) (A) (A) (A) (A)
                 (A) (A) (A) (A) (A) (A) (A) (A) (A) (A) (A) (A)
                 (A) (A) (A) (A) (A) (A) (A) (A) (A) (A) (A) (A)
                 (A) (A) (A) (A) (A) (A) (A) (A) (A) (A) (A) (A)
                 (A) (A) (A) (A) (A) (A) (A) (A) (A) (A) (A) (A)
                 (A) (A) (A) (A) (A) (A) (A) (A) (A) (A) (A) (A)
                 (A) (A) (A) (A) (A) (A) (A) (A) (A) (A) (A) (A)
                 (A) (A) (A) (A) (A) (A) (A) (A) (A) (A) (A) (A)
                 (A) (A) (A) (A) (A) (A) (A) (A) (A) (A) (A) (A)
                 (A) (A) (A) (A) (A) (A) (A) (A) (A) (A) (A) (A)
                 (A) (A) (A) (A) (A) (A) (A) (A) (A) (A) (A) (A)
                 (A) (A)
 The electronic state is 1-A.
 Alpha  occ. eigenvalues -- -102.68281 -19.70217 -19.69846 -19.68287 -19.65791
 Alpha  occ. eigenvalues --  -19.65249 -14.77438 -10.70968 -10.67819 -10.64929
 Alpha  occ. eigenvalues --  -10.62662 -10.62550 -10.62210 -10.59962 -10.59575
 Alpha  occ. eigenvalues --  -10.58849 -10.58636 -10.57596 -10.57154 -10.55304
 Alpha  occ. eigenvalues --   -9.82963  -7.55365  -7.54705  -7.54695  -1.24460
 Alpha  occ. eigenvalues --   -1.24186  -1.19778  -1.16715  -1.15172  -1.04423
 Alpha  occ. eigenvalues --   -1.00901  -0.95409  -0.91923  -0.88261  -0.86966
 Alpha  occ. eigenvalues --   -0.83607  -0.81211  -0.77149  -0.73542  -0.72474
 Alpha  occ. eigenvalues --   -0.70002  -0.68456  -0.67657  -0.63477  -0.61306
 Alpha  occ. eigenvalues --   -0.60831  -0.59821  -0.58283  -0.57704  -0.56334
 Alpha  occ. eigenvalues --   -0.55112  -0.53992  -0.53630  -0.53300  -0.51841
 Alpha  occ. eigenvalues --   -0.51080  -0.50475  -0.49052  -0.48889  -0.47970
 Alpha  occ. eigenvalues --   -0.47317  -0.46742  -0.46214  -0.46142  -0.45328
 Alpha  occ. eigenvalues --   -0.43909  -0.43530  -0.42777  -0.40563  -0.40075
 Alpha  occ. eigenvalues --   -0.38999  -0.38847  -0.38244  -0.36817  -0.35939
 Alpha  occ. eigenvalues --   -0.34138  -0.31830  -0.28699
 Alpha virt. eigenvalues --   -0.03345   0.00484   0.00646   0.01772   0.02161
 Alpha virt. eigenvalues --    0.02248   0.02524   0.03276   0.03476   0.04656
 Alpha virt. eigenvalues --    0.04767   0.04859   0.05100   0.05453   0.06191
 Alpha virt. eigenvalues --    0.06356   0.07499   0.07616   0.07793   0.08155
 Alpha virt. eigenvalues --    0.08561   0.08902   0.09509   0.09990   0.10293
 Alpha virt. eigenvalues --    0.10771   0.11369   0.11428   0.12629   0.12800
 Alpha virt. eigenvalues --    0.13390   0.13617   0.14201   0.14286   0.14444
 Alpha virt. eigenvalues --    0.14804   0.15104   0.15464   0.15725   0.16511
 Alpha virt. eigenvalues --    0.16799   0.17067   0.17693   0.17949   0.18509
 Alpha virt. eigenvalues --    0.18721   0.19249   0.19816   0.20032   0.20332
 Alpha virt. eigenvalues --    0.20597   0.20961   0.21324   0.21878   0.22023
 Alpha virt. eigenvalues --    0.22597   0.22904   0.23189   0.23316   0.24012
 Alpha virt. eigenvalues --    0.24226   0.24849   0.25075   0.25359   0.25847
 Alpha virt. eigenvalues --    0.26297   0.26806   0.26857   0.27124   0.27622
 Alpha virt. eigenvalues --    0.28205   0.28603   0.28756   0.28924   0.29275
 Alpha virt. eigenvalues --    0.29972   0.30556   0.31128   0.31714   0.31836
 Alpha virt. eigenvalues --    0.32411   0.32618   0.33238   0.33430   0.34091
 Alpha virt. eigenvalues --    0.34313   0.35011   0.35304   0.35455   0.36364
 Alpha virt. eigenvalues --    0.36664   0.36965   0.37842   0.38331   0.38554
 Alpha virt. eigenvalues --    0.38855   0.39683   0.40615   0.40716   0.40813
 Alpha virt. eigenvalues --    0.41988   0.43019   0.43854   0.44220   0.44747
 Alpha virt. eigenvalues --    0.45394   0.45804   0.46789   0.49260   0.50729
 Alpha virt. eigenvalues --    0.51266   0.51422   0.53617   0.54744   0.55223
 Alpha virt. eigenvalues --    0.56674   0.59337   0.60954   0.64602   0.66858
 Alpha virt. eigenvalues --    0.67323   0.68247   0.70617   0.71435   0.72033
 Alpha virt. eigenvalues --    0.72499   0.73119   0.74298   0.74677   0.75014
 Alpha virt. eigenvalues --    0.75561   0.78091   0.78408   0.79188   0.80280
 Alpha virt. eigenvalues --    0.80767   0.81268   0.81936   0.82471   0.83189
 Alpha virt. eigenvalues --    0.84235   0.85138   0.85787   0.86166   0.88086
 Alpha virt. eigenvalues --    0.88783   0.90421   0.91410   0.92045   0.93115
 Alpha virt. eigenvalues --    0.93672   0.95750   0.95838   0.97044   0.97672
 Alpha virt. eigenvalues --    0.98676   0.99708   1.00760   1.03115   1.03741
 Alpha virt. eigenvalues --    1.05069   1.05445   1.06260   1.07147   1.08763
 Alpha virt. eigenvalues --    1.09497   1.11093   1.11569   1.12526   1.12825
 Alpha virt. eigenvalues --    1.13585   1.14583   1.15768   1.16846   1.18272
 Alpha virt. eigenvalues --    1.18920   1.19516   1.20346   1.20793   1.22407
 Alpha virt. eigenvalues --    1.23640   1.25068   1.26860   1.27041   1.27439
 Alpha virt. eigenvalues --    1.28653   1.28879   1.29922   1.31939   1.32594
 Alpha virt. eigenvalues --    1.33396   1.35324   1.35587   1.36850   1.37374
 Alpha virt. eigenvalues --    1.37790   1.38111   1.38712   1.40093   1.41048
 Alpha virt. eigenvalues --    1.41973   1.42421   1.43174   1.44201   1.44648
 Alpha virt. eigenvalues --    1.44951   1.45672   1.46875   1.47397   1.47764
 Alpha virt. eigenvalues --    1.49792   1.50465   1.51803   1.52794   1.55398
 Alpha virt. eigenvalues --    1.56966   1.57704   1.58289   1.59137   1.59354
 Alpha virt. eigenvalues --    1.62039   1.65092   1.66253   1.67952   1.68679
 Alpha virt. eigenvalues --    1.71152   1.72113   1.76157   1.77174   1.77850
 Alpha virt. eigenvalues --    1.78361   1.79084   1.80347   1.81064   1.82551
 Alpha virt. eigenvalues --    1.83135   1.84276   1.85036   1.86070   1.88875
 Alpha virt. eigenvalues --    1.89127   1.90911   1.91230   1.92640   1.95577
 Alpha virt. eigenvalues --    1.96275   1.96797   1.97451   1.99261   1.99674
 Alpha virt. eigenvalues --    2.00543   2.02315   2.04005   2.05096   2.06004
 Alpha virt. eigenvalues --    2.06960   2.07113   2.08209   2.09521   2.10366
 Alpha virt. eigenvalues --    2.11397   2.11972   2.14613   2.15781   2.17594
 Alpha virt. eigenvalues --    2.18569   2.19298   2.21273   2.22098   2.23445
 Alpha virt. eigenvalues --    2.25423   2.26061   2.27884   2.28570   2.29542
 Alpha virt. eigenvalues --    2.33222   2.34939   2.36416   2.38054   2.39010
 Alpha virt. eigenvalues --    2.39602   2.41360   2.42169   2.43834   2.44385
 Alpha virt. eigenvalues --    2.45155   2.46690   2.47443   2.49520   2.50464
 Alpha virt. eigenvalues --    2.51899   2.52648   2.53905   2.55385   2.56636
 Alpha virt. eigenvalues --    2.58516   2.59209   2.59554   2.60669   2.60824
 Alpha virt. eigenvalues --    2.62310   2.62450   2.63466   2.66098   2.68745
 Alpha virt. eigenvalues --    2.69102   2.69646   2.70234   2.71060   2.73847
 Alpha virt. eigenvalues --    2.74206   2.75163   2.75543   2.75860   2.76706
 Alpha virt. eigenvalues --    2.79243   2.80428   2.82328   2.83080   2.83776
 Alpha virt. eigenvalues --    2.85150   2.86625   2.90352   2.91220   2.92952
 Alpha virt. eigenvalues --    2.96901   2.98386   3.01037   3.02245   3.03560
 Alpha virt. eigenvalues --    3.07355   3.08234   3.08519   3.13332   3.13487
 Alpha virt. eigenvalues --    3.15128   3.22059   3.24304   3.25091   3.27504
 Alpha virt. eigenvalues --    3.32527   3.37730   3.39625   3.40126   3.44004
 Alpha virt. eigenvalues --    3.45477   3.47067   3.48191   3.53142   3.53881
 Alpha virt. eigenvalues --    3.58676   3.64162   3.66248   3.76524   4.27899
 Alpha virt. eigenvalues --    4.30801   4.32745   4.35062   4.36275   4.39473
 Alpha virt. eigenvalues --    4.41379   4.44219   4.48459   4.50573   4.53006
 Alpha virt. eigenvalues --    4.56797   4.59865   4.63229   4.66959   4.77166
 Alpha virt. eigenvalues --    4.80575   4.87569   4.89049   4.95871
          Condensed to atoms (all electrons):
              1          2          3          4          5          6
     1  O    8.430157   0.476116   0.101164  -0.043046   0.011733   0.007399
     2  C    0.476116  14.104396  -1.602510  -1.373673   0.000397   0.236049
     3  C    0.101164  -1.602510  10.782246   1.376134  -0.329293  -0.282591
     4  C   -0.043046  -1.373673   1.376134   8.288883   0.211734  -0.189834
     5  N    0.011733   0.000397  -0.329293   0.211734   7.336228  -0.060589
     6  C    0.007399   0.236049  -0.282591  -0.189834  -0.060589   8.868169
     7  C   -0.000624   0.204733   0.135713   0.331988  -0.225909  -1.032781
     8  O    0.000466  -0.000772  -0.003424  -0.020370   0.013516  -0.136109
     9  C   -0.000045   0.051716  -0.056388  -0.183041   0.074805   0.252434
    10  C   -0.001960  -0.022305  -0.034546  -0.081419  -0.037340   0.334259
    11  O   -0.000446  -0.009582  -0.056406  -0.123408   0.028128  -0.041284
    12  O    0.000003   0.002318   0.008513  -0.004514   0.004362  -0.040964
    13  C    0.004043  -0.441275   0.214924  -1.348427   0.349452  -2.064343
    14  C    0.000437  -0.067350  -0.018144  -0.242666  -0.026495   0.062131
    15  O   -0.003244  -0.044358  -0.166360   0.513743  -0.191827  -0.101642
    16  C    0.109495  -0.406504   0.122928  -0.865209  -0.065279  -0.186435
    17  C   -0.016192  -2.244953  -1.930485  -0.010898  -0.026642   0.000285
    18  Cl  -0.000501  -0.009076  -0.018783   0.005612  -0.000632   0.000779
    19  C    0.044095  -0.263721  -0.492078  -0.338845   0.016330   0.039510
    20  C   -0.755542  -2.085896  -1.738614  -0.043487   0.189842   0.059130
    21  H    0.185437   0.049222  -0.139532  -0.008688   0.067795   0.010022
    22  H    0.000320  -0.001837   0.008696   0.033013  -0.062602   0.404111
    23  H    0.000002   0.000981  -0.001397  -0.041187   0.019977  -0.053219
    24  H   -0.000180  -0.006412   0.000903  -0.005419   0.032598  -0.063823
    25  H   -0.000988   0.033387  -0.016523  -0.040481   0.034178  -0.047340
    26  H   -0.000002  -0.002503   0.000017  -0.004019   0.000688   0.042231
    27  H    0.000000  -0.002103  -0.005100   0.004014  -0.000735   0.008479
    28  H    0.000024   0.002202  -0.012040   0.057739  -0.002505   0.024336
    29  H   -0.000001   0.001209   0.002987   0.034228  -0.007346   0.003511
    30  H   -0.000001   0.000708   0.000139  -0.001875   0.000615   0.013224
    31  H    0.000000  -0.000298  -0.001498  -0.014939  -0.000240   0.024957
    32  H   -0.000501  -0.000125  -0.004803   0.019515   0.002663   0.003355
    33  H   -0.000414   0.000651   0.006014  -0.000968   0.000046  -0.000014
    34  H   -0.003481   0.015759   0.012827  -0.000631   0.000514   0.000152
              7          8          9         10         11         12
     1  O   -0.000624   0.000466  -0.000045  -0.001960  -0.000446   0.000003
     2  C    0.204733  -0.000772   0.051716  -0.022305  -0.009582   0.002318
     3  C    0.135713  -0.003424  -0.056388  -0.034546  -0.056406   0.008513
     4  C    0.331988  -0.020370  -0.183041  -0.081419  -0.123408  -0.004514
     5  N   -0.225909   0.013516   0.074805  -0.037340   0.028128   0.004362
     6  C   -1.032781  -0.136109   0.252434   0.334259  -0.041284  -0.040964
     7  C    7.704246   0.296248  -0.340866  -0.554157   0.011276   0.067004
     8  O    0.296248   8.239363  -0.136725   0.007613  -0.000742  -0.001129
     9  C   -0.340866  -0.136725   6.608387  -0.361063  -0.233163  -0.206592
    10  C   -0.554157   0.007613  -0.361063   5.828650   0.310336   0.552278
    11  O    0.011276  -0.000742  -0.233163   0.310336   8.218870  -0.143771
    12  O    0.067004  -0.001129  -0.206592   0.552278  -0.143771   8.191125
    13  C   -0.418560   0.070134  -0.077032   0.006497   0.093546   0.030022
    14  C   -0.260709   0.000555   0.021977  -0.098668   0.004529  -0.027538
    15  O    0.055654  -0.003119  -0.021550   0.000343   0.013076  -0.005514
    16  C   -0.123335  -0.003731  -0.083689   0.107017   0.054738  -0.009541
    17  C   -0.054995  -0.000678  -0.001657   0.009144   0.020943  -0.001344
    18  Cl  -0.000221  -0.000003  -0.000440   0.000965   0.000107  -0.000025
    19  C    0.012439  -0.000102  -0.004758   0.010147   0.002937  -0.000062
    20  C   -0.020695   0.000633   0.044530  -0.021476   0.005368   0.000223
    21  H   -0.002900  -0.000331  -0.001308  -0.000781   0.000017   0.000003
    22  H   -0.028546  -0.006359   0.009114   0.004345  -0.000161  -0.000093
    23  H    0.391812  -0.044649  -0.024794  -0.020276   0.001438   0.006359
    24  H    0.045547   0.265467  -0.032956  -0.003811   0.000141   0.000147
    25  H    0.009919   0.000145   0.421544  -0.080815   0.010425   0.008553
    26  H   -0.072963  -0.004482   0.367594   0.003749   0.004059  -0.008535
    27  H   -0.010167   0.000065   0.038073  -0.012291   0.250278   0.001993
    28  H    0.036556  -0.000887  -0.000758  -0.000501  -0.000114  -0.000119
    29  H    0.049978  -0.000553  -0.014146   0.016297  -0.004632  -0.002439
    30  H   -0.007201   0.000045   0.000169   0.000029   0.000152   0.000434
    31  H   -0.021803  -0.000033   0.000876  -0.002378   0.000056   0.000575
    32  H   -0.000392   0.000000   0.000967   0.000517   0.000541  -0.000013
    33  H   -0.000007   0.000000   0.000002  -0.000003  -0.000001   0.000000
    34  H   -0.000014   0.000000   0.000012  -0.000001   0.000001   0.000000
             13         14         15         16         17         18
     1  O    0.004043   0.000437  -0.003244   0.109495  -0.016192  -0.000501
     2  C   -0.441275  -0.067350  -0.044358  -0.406504  -2.244953  -0.009076
     3  C    0.214924  -0.018144  -0.166360   0.122928  -1.930485  -0.018783
     4  C   -1.348427  -0.242666   0.513743  -0.865209  -0.010898   0.005612
     5  N    0.349452  -0.026495  -0.191827  -0.065279  -0.026642  -0.000632
     6  C   -2.064343   0.062131  -0.101642  -0.186435   0.000285   0.000779
     7  C   -0.418560  -0.260709   0.055654  -0.123335  -0.054995  -0.000221
     8  O    0.070134   0.000555  -0.003119  -0.003731  -0.000678  -0.000003
     9  C   -0.077032   0.021977  -0.021550  -0.083689  -0.001657  -0.000440
    10  C    0.006497  -0.098668   0.000343   0.107017   0.009144   0.000965
    11  O    0.093546   0.004529   0.013076   0.054738   0.020943   0.000107
    12  O    0.030022  -0.027538  -0.005514  -0.009541  -0.001344  -0.000025
    13  C    9.198598   0.100313  -0.165870   0.106503   0.001710   0.000793
    14  C    0.100313   5.870613  -0.089959   0.038336   0.017207   0.000390
    15  O   -0.165870  -0.089959   8.369416   0.037100   0.054619  -0.001093
    16  C    0.106503   0.038336   0.037100   9.820249   0.127026  -0.118692
    17  C    0.001710   0.017207   0.054619   0.127026   9.260916  -0.058888
    18  Cl   0.000793   0.000390  -0.001093  -0.118692  -0.058888  17.022139
    19  C   -0.085843  -0.004899  -0.002361  -0.423254   0.342129  -0.121833
    20  C   -0.032998  -0.005332   0.021137  -2.055450   0.497433   0.077981
    21  H   -0.001205   0.000622   0.001987  -0.023600   0.002791   0.000012
    22  H   -0.064181  -0.010360   0.010557   0.002386  -0.000222   0.000001
    23  H    0.025765   0.022665  -0.004582  -0.003582  -0.000195   0.000000
    24  H    0.026571  -0.000500  -0.000397  -0.001102   0.000061   0.000000
    25  H    0.013648  -0.000266  -0.002583  -0.026706  -0.004491  -0.000011
    26  H    0.005321   0.003395   0.000161   0.001629   0.000253   0.000001
    27  H   -0.008109   0.001295  -0.001004   0.002205   0.001988  -0.000087
    28  H    0.275880  -0.067158  -0.052165   0.017846   0.002581   0.000010
    29  H   -0.084813   0.365549  -0.001468   0.001529   0.000022   0.000000
    30  H   -0.053592   0.424155  -0.005594  -0.005162  -0.000483  -0.000005
    31  H   -0.095207   0.463062   0.008004   0.000439   0.000057   0.000000
    32  H    0.010759  -0.000479   0.010914   0.354359  -0.081783   0.001401
    33  H    0.000001   0.000001   0.000000   0.031122   0.055087  -0.005493
    34  H    0.000071   0.000001   0.000021   0.004060  -0.000515   0.000913
             19         20         21         22         23         24
     1  O    0.044095  -0.755542   0.185437   0.000320   0.000002  -0.000180
     2  C   -0.263721  -2.085896   0.049222  -0.001837   0.000981  -0.006412
     3  C   -0.492078  -1.738614  -0.139532   0.008696  -0.001397   0.000903
     4  C   -0.338845  -0.043487  -0.008688   0.033013  -0.041187  -0.005419
     5  N    0.016330   0.189842   0.067795  -0.062602   0.019977   0.032598
     6  C    0.039510   0.059130   0.010022   0.404111  -0.053219  -0.063823
     7  C    0.012439  -0.020695  -0.002900  -0.028546   0.391812   0.045547
     8  O   -0.000102   0.000633  -0.000331  -0.006359  -0.044649   0.265467
     9  C   -0.004758   0.044530  -0.001308   0.009114  -0.024794  -0.032956
    10  C    0.010147  -0.021476  -0.000781   0.004345  -0.020276  -0.003811
    11  O    0.002937   0.005368   0.000017  -0.000161   0.001438   0.000141
    12  O   -0.000062   0.000223   0.000003  -0.000093   0.006359   0.000147
    13  C   -0.085843  -0.032998  -0.001205  -0.064181   0.025765   0.026571
    14  C   -0.004899  -0.005332   0.000622  -0.010360   0.022665  -0.000500
    15  O   -0.002361   0.021137   0.001987   0.010557  -0.004582  -0.000397
    16  C   -0.423254  -2.055450  -0.023600   0.002386  -0.003582  -0.001102
    17  C    0.342129   0.497433   0.002791  -0.000222  -0.000195   0.000061
    18  Cl  -0.121833   0.077981   0.000012   0.000001   0.000000   0.000000
    19  C    7.397678   0.080523  -0.005726   0.000079  -0.000032  -0.000133
    20  C    0.080523  10.935119   0.124082  -0.000958   0.000145   0.000202
    21  H   -0.005726   0.124082   0.295161  -0.000213   0.000000   0.000111
    22  H    0.000079  -0.000958  -0.000213   0.508145  -0.003419  -0.003340
    23  H   -0.000032   0.000145   0.000000  -0.003419   0.534280   0.005730
    24  H   -0.000133   0.000202   0.000111  -0.003340   0.005730   0.326670
    25  H    0.000013   0.009164   0.000075  -0.000135   0.003618   0.001639
    26  H   -0.000036  -0.000036   0.000002  -0.000058  -0.003756  -0.000527
    27  H    0.000100  -0.000316   0.000000   0.000000   0.000005   0.000000
    28  H    0.000600  -0.000302  -0.000007  -0.007857  -0.000099  -0.000004
    29  H    0.000138  -0.000179   0.000000  -0.000045  -0.002469  -0.000002
    30  H   -0.000049   0.000124   0.000000  -0.000092   0.000097   0.000000
    31  H   -0.000012   0.000012   0.000000   0.000398  -0.000251  -0.000004
    32  H    0.008879  -0.001499  -0.000009   0.000001   0.000000   0.000000
    33  H    0.261909  -0.018228   0.000002   0.000000   0.000000   0.000000
    34  H   -0.007295   0.307205   0.000064   0.000000   0.000000   0.000000
             25         26         27         28         29         30
     1  O   -0.000988  -0.000002   0.000000   0.000024  -0.000001  -0.000001
     2  C    0.033387  -0.002503  -0.002103   0.002202   0.001209   0.000708
     3  C   -0.016523   0.000017  -0.005100  -0.012040   0.002987   0.000139
     4  C   -0.040481  -0.004019   0.004014   0.057739   0.034228  -0.001875
     5  N    0.034178   0.000688  -0.000735  -0.002505  -0.007346   0.000615
     6  C   -0.047340   0.042231   0.008479   0.024336   0.003511   0.013224
     7  C    0.009919  -0.072963  -0.010167   0.036556   0.049978  -0.007201
     8  O    0.000145  -0.004482   0.000065  -0.000887  -0.000553   0.000045
     9  C    0.421544   0.367594   0.038073  -0.000758  -0.014146   0.000169
    10  C   -0.080815   0.003749  -0.012291  -0.000501   0.016297   0.000029
    11  O    0.010425   0.004059   0.250278  -0.000114  -0.004632   0.000152
    12  O    0.008553  -0.008535   0.001993  -0.000119  -0.002439   0.000434
    13  C    0.013648   0.005321  -0.008109   0.275880  -0.084813  -0.053592
    14  C   -0.000266   0.003395   0.001295  -0.067158   0.365549   0.424155
    15  O   -0.002583   0.000161  -0.001004  -0.052165  -0.001468  -0.005594
    16  C   -0.026706   0.001629   0.002205   0.017846   0.001529  -0.005162
    17  C   -0.004491   0.000253   0.001988   0.002581   0.000022  -0.000483
    18  Cl  -0.000011   0.000001  -0.000087   0.000010   0.000000  -0.000005
    19  C    0.000013  -0.000036   0.000100   0.000600   0.000138  -0.000049
    20  C    0.009164  -0.000036  -0.000316  -0.000302  -0.000179   0.000124
    21  H    0.000075   0.000002   0.000000  -0.000007   0.000000   0.000000
    22  H   -0.000135  -0.000058   0.000000  -0.007857  -0.000045  -0.000092
    23  H    0.003618  -0.003756   0.000005  -0.000099  -0.002469   0.000097
    24  H    0.001639  -0.000527   0.000000  -0.000004  -0.000002   0.000000
    25  H    0.500461  -0.028831  -0.000111  -0.000006  -0.000037   0.000001
    26  H   -0.028831   0.478867  -0.000252   0.000000  -0.000005   0.000000
    27  H   -0.000111  -0.000252   0.297881   0.000000   0.000079  -0.000004
    28  H   -0.000006   0.000000   0.000000   0.548942   0.004260  -0.005140
    29  H   -0.000037  -0.000005   0.000079   0.004260   0.512162  -0.026196
    30  H    0.000001   0.000000  -0.000004  -0.005140  -0.026196   0.505813
    31  H    0.000000   0.000001   0.000000  -0.001771  -0.026027  -0.023073
    32  H    0.000000   0.000000  -0.000007  -0.000008   0.000000  -0.000003
    33  H    0.000000   0.000000   0.000000   0.000000   0.000000   0.000000
    34  H    0.000000   0.000000   0.000000   0.000000   0.000000   0.000000
             31         32         33         34
     1  O    0.000000  -0.000501  -0.000414  -0.003481
     2  C   -0.000298  -0.000125   0.000651   0.015759
     3  C   -0.001498  -0.004803   0.006014   0.012827
     4  C   -0.014939   0.019515  -0.000968  -0.000631
     5  N   -0.000240   0.002663   0.000046   0.000514
     6  C    0.024957   0.003355  -0.000014   0.000152
     7  C   -0.021803  -0.000392  -0.000007  -0.000014
     8  O   -0.000033   0.000000   0.000000   0.000000
     9  C    0.000876   0.000967   0.000002   0.000012
    10  C   -0.002378   0.000517  -0.000003  -0.000001
    11  O    0.000056   0.000541  -0.000001   0.000001
    12  O    0.000575  -0.000013   0.000000   0.000000
    13  C   -0.095207   0.010759   0.000001   0.000071
    14  C    0.463062  -0.000479   0.000001   0.000001
    15  O    0.008004   0.010914   0.000000   0.000021
    16  C    0.000439   0.354359   0.031122   0.004060
    17  C    0.000057  -0.081783   0.055087  -0.000515
    18  Cl   0.000000   0.001401  -0.005493   0.000913
    19  C   -0.000012   0.008879   0.261909  -0.007295
    20  C    0.000012  -0.001499  -0.018228   0.307205
    21  H    0.000000  -0.000009   0.000002   0.000064
    22  H    0.000398   0.000001   0.000000   0.000000
    23  H   -0.000251   0.000000   0.000000   0.000000
    24  H   -0.000004   0.000000   0.000000   0.000000
    25  H    0.000000   0.000000   0.000000   0.000000
    26  H    0.000001   0.000000   0.000000   0.000000
    27  H    0.000000  -0.000007   0.000000   0.000000
    28  H   -0.001771  -0.000008   0.000000   0.000000
    29  H   -0.026027   0.000000   0.000000   0.000000
    30  H   -0.023073  -0.000003   0.000000   0.000000
    31  H    0.499389   0.000000   0.000000   0.000000
    32  H    0.000000   0.462410  -0.000127   0.000008
    33  H    0.000000  -0.000127   0.466814  -0.003546
    34  H    0.000000   0.000008  -0.003546   0.470088
 Mulliken atomic charges:
              1
     1  O   -0.543724
     2  C   -0.594595
     3  C    0.137310
     4  C    0.110438
     5  N   -0.358167
     6  C   -0.093557
     7  C   -0.176271
     8  O   -0.530056
     9  C   -0.111232
    10  C    0.141607
    11  O   -0.417254
    12  O   -0.421720
    13  C    0.406904
    14  C   -0.476708
    15  O   -0.232042
    16  C   -0.537695
    17  C    0.040171
    18  Cl   0.224682
    19  C   -0.466470
    20  C    0.428153
    21  H    0.446896
    22  H    0.209311
    23  H    0.191035
    24  H    0.412824
    25  H    0.202554
    26  H    0.218036
    27  H    0.433830
    28  H    0.180463
    29  H    0.178408
    30  H    0.182765
    31  H    0.189706
    32  H    0.213461
    33  H    0.207152
    34  H    0.203788
 Sum of Mulliken atomic charges =   0.00000
 Mulliken charges with hydrogens summed into heavy atoms:
              1
     1  O   -0.096829
     2  C   -0.594595
     3  C    0.137310
     4  C    0.110438
     5  N   -0.358167
     6  C    0.115753
     7  C    0.014764
     8  O   -0.117232
     9  C    0.309358
    10  C    0.141607
    11  O    0.016576
    12  O   -0.421720
    13  C    0.587366
    14  C    0.074170
    15  O   -0.232042
    16  C   -0.324234
    17  C    0.040171
    18  Cl   0.224682
    19  C   -0.259318
    20  C    0.631941
 Sum of Mulliken charges with hydrogens summed into heavy atoms =   0.00000
 Electronic spatial extent (au):  <R**2>=           6575.8172
 Charge=              0.0000 electrons
 Dipole moment (field-independent basis, Debye):
    X=              0.7953    Y=             -0.0753    Z=              1.6940  Tot=              1.8729
 Quadrupole moment (field-independent basis, Debye-Ang):
   XX=           -136.4153   YY=           -129.5698   ZZ=           -118.4549
   XY=              2.5598   XZ=            -12.6494   YZ=             -1.8203
 Traceless Quadrupole moment (field-independent basis, Debye-Ang):
   XX=             -8.2686   YY=             -1.4231   ZZ=              9.6918
   XY=              2.5598   XZ=            -12.6494   YZ=             -1.8203
 Octapole moment (field-independent basis, Debye-Ang**2):
  XXX=             70.8689  YYY=            -26.8185  ZZZ=              2.4170  XYY=             19.3624
  XXY=             32.7415  XXZ=             16.0865  XZZ=            -25.4479  YZZ=             -6.0856
  YYZ=             -1.5978  XYZ=              7.5850
 Hexadecapole moment (field-independent basis, Debye-Ang**3):
 XXXX=          -6082.7846 YYYY=          -1790.8210 ZZZZ=           -958.2648 XXXY=            174.6809
 XXXZ=           -218.6200 YYYX=            -89.4131 YYYZ=             14.3755 ZZZX=             -3.7326
 ZZZY=             13.6745 XXYY=          -1407.6084 XXZZ=          -1127.3000 YYZZ=           -450.3635
 XXYZ=            -88.0581 YYXZ=            -54.0782 ZZXY=            -16.5194
 N-N= 1.738150959070D+03 E-N=-6.748442017671D+03  KE= 1.385313486875D+03
 D1PCM: PCM CHGder 1st derivatives, ID1Alg=3 FixD1E=F DoIter=F DoCFld=F I1PDM=0.
 Calling FoFJK, ICntrl=      2127 FMM=F ISym2X=0 I1Cent= 0 IOpClX= 0 NMat=1 NMatS=1 NMatT=0.
 ***** Axes restored to original set *****
 -------------------------------------------------------------------
 Center     Atomic                   Forces (Hartrees/Bohr)
 Number     Number              X              Y              Z
 -------------------------------------------------------------------
      1        8          -0.022594564    0.021911241    0.004533312
      2        6           0.005998090   -0.007738898   -0.002485688
      3        6           0.006054395    0.015278345    0.009602131
      4        6           0.003312219   -0.002300664    0.001533684
      5        7          -0.017838824   -0.008415323   -0.011131101
      6        6           0.021421564    0.002567058    0.003699607
      7        6          -0.014447952   -0.004561986   -0.003180109
      8        8           0.028505690   -0.003155011   -0.006565115
      9        6           0.001786923    0.014584363    0.011011457
     10        6           0.004447952    0.001763169   -0.001077026
     11        8           0.004871077   -0.043598588   -0.009881036
     12        8          -0.026337204   -0.002875235    0.002525439
     13        6           0.016699486   -0.013215852   -0.001586264
     14        6          -0.011826996    0.004654664   -0.001257816
     15        8          -0.029050554    0.038761021    0.001802983
     16        6          -0.018554582    0.000204978   -0.005052513
     17        6           0.007503598   -0.024356912   -0.010208615
     18       17          -0.000596643    0.007840472    0.003655249
     19        6           0.014088109   -0.011537815   -0.001581724
     20        6           0.012330210    0.012832873    0.010296536
     21        1           0.023511528   -0.008535516    0.001727729
     22        1           0.003083044   -0.003980799   -0.008365947
     23        1           0.002153993   -0.000456146    0.000789835
     24        1          -0.024429230   -0.005899536   -0.001516732
     25        1          -0.003051419   -0.000897991    0.005883971
     26        1           0.006224674   -0.004284645    0.001147845
     27        1           0.013148623    0.033180824    0.008115740
     28        1          -0.001606030   -0.003876289    0.003054399
     29        1          -0.000652927    0.002289369   -0.007312944
     30        1          -0.001768788   -0.000064811    0.002690025
     31        1          -0.001851324   -0.004429632   -0.000056062
     32        1           0.004733867   -0.000251064    0.001442029
     33        1          -0.003887325    0.001821039   -0.000233983
     34        1          -0.001380679   -0.003256703   -0.002019299
 -------------------------------------------------------------------
 Cartesian Forces:  Max     0.043598588 RMS     0.011961118

 GradGradGradGradGradGradGradGradGradGradGradGradGradGradGradGradGradGrad
 Berny optimization.
 Internal  Forces:  Max     0.036599055 RMS     0.007987037
 Search for a local minimum.
 Step number   1 out of a maximum of  191
 All quantities printed in internal units (Hartrees-Bohrs-Radians)
 Mixed Optimization -- RFO/linear search
 Second derivative matrix not updated -- first step.
 ITU=  0
     Eigenvalues ---    0.00230   0.00230   0.00303   0.00395   0.00738
     Eigenvalues ---    0.00865   0.00913   0.01473   0.01561   0.01694
     Eigenvalues ---    0.01847   0.01926   0.01956   0.01969   0.01981
     Eigenvalues ---    0.01995   0.01997   0.02000   0.02146   0.02236
     Eigenvalues ---    0.02370   0.03393   0.03546   0.03613   0.03901
     Eigenvalues ---    0.04188   0.04969   0.04986   0.05195   0.05233
     Eigenvalues ---    0.05549   0.08069   0.08450   0.08583   0.09873
     Eigenvalues ---    0.13184   0.13817   0.16000   0.16000   0.16000
     Eigenvalues ---    0.16000   0.16000   0.16000   0.16000   0.16000
     Eigenvalues ---    0.16000   0.17110   0.17338   0.18895   0.20163
     Eigenvalues ---    0.21946   0.22371   0.23490   0.23638   0.24601
     Eigenvalues ---    0.24992   0.25000   0.25000   0.25000   0.25000
     Eigenvalues ---    0.25000   0.26584   0.27149   0.27612   0.28965
     Eigenvalues ---    0.29607   0.33051   0.33569   0.34486   0.34529
     Eigenvalues ---    0.34673   0.34748   0.34778   0.34797   0.34810
     Eigenvalues ---    0.35498   0.35941   0.35964   0.35979   0.37390
     Eigenvalues ---    0.39812   0.40417   0.42519   0.42984   0.43067
     Eigenvalues ---    0.43978   0.44310   0.44499   0.48007   0.51825
     Eigenvalues ---    0.53182   0.56587   0.57937   0.58847   0.70244
     Eigenvalues ---    0.92581
 RFO step:  Lambda=-3.41095746D-02 EMin= 2.30000000D-03
 Linear search not attempted -- first point.
 Maximum step size (   0.300) exceeded in Quadratic search.
    -- Step size scaled by   0.976
 Iteration  1 RMS(Cart)=  0.15500509 RMS(Int)=  0.00312949
 Iteration  2 RMS(Cart)=  0.00710327 RMS(Int)=  0.00054687
 Iteration  3 RMS(Cart)=  0.00002763 RMS(Int)=  0.00054678
 Iteration  4 RMS(Cart)=  0.00000002 RMS(Int)=  0.00054678
 Variable       Old X    -DE/DX   Delta X   Delta X   Delta X     New X
                                 (Linear)    (Quad)   (Total)
    R1        2.58067  -0.01470   0.00000  -0.02599  -0.02599   2.55469
    R2        1.80449   0.02506   0.00000   0.04078   0.04078   1.84527
    R3        2.69020  -0.01911   0.00000  -0.04137  -0.04135   2.64885
    R4        2.66253  -0.01433   0.00000  -0.02961  -0.02961   2.63292
    R5        2.81364  -0.02326   0.00000  -0.06141  -0.06141   2.75222
    R6        2.66976  -0.01315   0.00000  -0.02730  -0.02728   2.64248
    R7        2.40747   0.01419   0.00000   0.01707   0.01707   2.42454
    R8        2.58675  -0.01314   0.00000  -0.02583  -0.02580   2.56095
    R9        2.72484   0.01078   0.00000   0.02704   0.02700   2.75183
   R10        2.95342  -0.01096   0.00000  -0.03567  -0.03567   2.91775
   R11        2.90624   0.00557   0.00000   0.01951   0.01951   2.92575
   R12        2.06517   0.00117   0.00000   0.00303   0.00303   2.06820
[...]
 000055,-0.00001174,0.00000094,-0.00000151,0.00000276,0.00000173,-0.000
 00142,0.00000197,-0.00000451,-0.00000592,0.00000090,-0.00000246,-0.000
 01108,-0.00000072,-0.00000979,0.00013787,0.00012796,0.00000984,0.00043
 871,-0.00097455,-0.00096333,-0.00009494,0.00005623,0.00006342,0.000045
 62,-0.00010350,0.00008829,-0.00005079,-0.00001551,-0.00002004,0.000035
 11,-0.00007469,0.00000587,-0.00225778,0.00023980,-0.00062269,0.0355248
 2,0.13821717,0.00000139,-0.00000730,-0.00000301,-0.00001623,0.00001107
 ,0.00000756,-0.00003189,-0.00003624,0.00000363,0.00015777,0.00013527,0
 .00026969,0.00014407,-0.00000528,-0.00025920,0.00010319,-0.00035396,0.
 00064289,0.00032897,-0.00071777,-0.00007306,-0.00016201,0.00016374,-0.
 00002599,-0.00010421,0.00024296,0.00027796,-0.00384427,-0.00017905,-0.
 00263077,0.00146975,-0.00065138,0.00004602,0.00034131,0.00238706,-0.00
 320139,0.00088783,-0.00241862,0.00361083,0.04659941,0.12453575,-0.2377
 2139,0.00023196,-0.00012197,-0.00001900,0.,0.00001272,-0.00000084,0.00
 000115,-0.00000258,0.00000279,-0.00000086,-0.00000083,-0.00000019,-0.0
 0000219,-0.00000007,-0.00000061,-0.00000124,0.00000011,-0.00000602,0.0
 0000393,-0.00000295,0.00000184,-0.00004935,0.00002629,-0.00002859,-0.0
 0025373,-0.00102613,-0.00048435,-0.00001875,-0.00005253,0.00000309,0.0
 0002437,0.00011075,0.00007149,0.00009362,0.00010152,0.00000222,-0.0000
 4086,0.00026344,0.00006294,-0.00126600,-0.00040138,0.00109465,-0.04859
 179,-0.13475769,0.25667189,-0.00038953,0.00013514,-0.00007629,0.000017
 28,-0.00012794,-0.00006185,0.00006050,0.00013895,0.00015477,0.00000458
 ,-0.00124953,-0.00069445,-0.00213798,-0.00030062,-0.00133816,-0.004088
 53,0.00010893,0.00238356,-0.00090393,-0.00004133,0.00078201,0.00029079
 ,0.00001563,-0.00024893,0.00017333,0.00005959,-0.00009282,-0.00027800,
 -0.00017241,0.00000107,0.00010706,0.00000754,-0.00002240,0.00019397,0.
 00001190,0.00019079,-0.00447701,-0.02102215,-0.02849403,-0.04657818,-0
 .00964322,-0.01269232,0.00300482,0.00041276,0.00091107,-0.00001697,-0.
 00003394,-0.00003322,-0.00005083,-0.00001205,-0.00002551,-0.00000421,0
 .00002952,0.00001579,-0.00000788,0.00004020,0.00002444,0.00002170,0.00
 001897,0.00000611,0.00049483,0.00001930,0.00022602,-0.00015583,-0.0004
 0558,-0.00029550,0.00038287,0.00007235,-0.00004724,0.00002126,0.000064
 87,0.00009672,0.00002036,-0.00002706,0.00005248,-0.00000938,0.00003361
 ,-0.00004146,-0.00000367,0.00000950,-0.00000457,0.00134673,0.00061133,
 0.00024578,-0.00054658,0.00460470,0.00430240,0.05143516,-0.00021040,0.
 00002464,-0.00006108,-0.00000029,-0.00000948,0.00000020,-0.00004930,0.
 00005481,0.00004229,0.00003707,-0.00041937,-0.00013503,-0.00082140,-0.
 00018016,-0.00077339,-0.00180869,0.00125257,0.00135917,-0.00027233,0.0
 0015127,0.00043874,0.00015495,-0.00004208,-0.00019411,-0.00005980,-0.0
 0002599,-0.00011246,-0.00063374,-0.00024416,-0.00009159,0.00025036,-0.
 00002514,-0.00008074,0.00040815,-0.00017235,0.00047288,0.00021277,-0.0
 0975893,-0.01092765,-0.01188565,-0.14134117,-0.12933047,0.00015951,0.0
 0095802,0.00063447,-0.00000015,-0.00003769,-0.00002348,-0.00005101,-0.
 00002734,-0.00003731,-0.00000708,0.00003242,0.00001732,-0.00000893,0.0
 0004436,0.00002565,0.00001157,-0.00000533,-0.00000731,0.00027470,0.000
 04114,0.00012626,0.00012779,-0.00003270,0.00002875,0.00009250,-0.00010
 418,0.00010198,0.00001959,0.00004646,0.00006375,-0.00000378,0.00002672
 ,0.00001882,0.00000648,0.00002738,-0.00002265,-0.00001296,0.00002844,0
 .00001904,0.00039144,0.00006699,0.00007183,0.00190647,0.01244278,0.014
 09099,0.01464536,0.15029061,-0.00000325,-0.00000727,-0.00000704,0.0000
 0106,0.00001575,0.00000211,0.00001232,0.00002780,-0.00000547,-0.000288
 31,-0.00017908,-0.00028103,0.00003111,0.00035454,0.00038452,0.00102491
 ,-0.00017387,0.00125561,0.00056442,0.00029140,0.00027021,-0.00030787,-
 0.00029914,-0.00017723,0.00000140,-0.00004161,0.00006036,0.00102124,0.
 00003869,0.00013867,-0.00044782,0.00022875,0.00012784,-0.00064193,0.00
 034842,-0.00083587,-0.00001527,0.00086143,-0.00059522,-0.01440572,-0.1
 3108221,-0.23000477,0.00001607,0.00016515,0.00018690,-0.00000432,-0.00
 002141,-0.00001399,-0.00001875,-0.00000630,-0.00001027,-0.00000134,0.0
 0001027,0.00000558,-0.00000025,0.00001580,0.00000778,0.00000612,-0.000
 01064,0.00000364,0.00001357,0.00001619,0.00000929,-0.00020343,-0.00019
 118,-0.00020457,-0.00048134,0.00009946,0.00009884,0.00007898,-0.000014
 33,-0.00001322,-0.00002377,0.00000847,-0.00004540,-0.00001400,-0.00000
 647,-0.00000305,0.00001667,-0.00010392,-0.00003922,-0.00051342,0.00036
 523,0.00083254,-0.00185346,-0.01675018,-0.01801521,0.01562857,0.142752
 50,0.24376517,-0.00002615,-0.00009060,-0.00006893,-0.00010195,0.000296
 04,0.00013131,-0.00037696,-0.00034881,-0.00049530,0.00034162,0.0026402
 3,0.00189861,0.00018782,-0.00080299,-0.00009201,0.00052433,0.00009829,
 -0.00016279,-0.00021954,-0.00023087,-0.00003936,0.00013857,0.00002093,
 -0.00002207,0.00012405,0.00003500,0.00004958,-0.00027804,0.00001995,0.
 00016369,0.00013011,-0.00004328,-0.00010350,0.00012542,0.00000991,0.00
 017220,-0.01591512,0.02481540,-0.00281122,-0.17136609,0.13338249,-0.01
 567404,-0.00799975,-0.00349671,-0.00163497,0.00004199,-0.00008682,-0.0
 0002461,-0.00005335,-0.00005694,-0.00006386,-0.00001326,0.00005446,0.0
 0002870,-0.00001121,0.00005057,0.00003075,-0.00003704,-0.00007105,-0.0
 0005191,0.00008258,0.00002430,0.00003986,-0.00013492,-0.00029848,-0.00
 020669,0.00011748,0.00000578,-0.00045244,-0.00001809,0.00002423,0.0000
 3461,0.00003909,-0.00003271,0.00006114,0.00000786,0.00000134,-0.000006
 61,-0.00000504,-0.00001863,0.00001080,0.00092292,-0.00025079,0.0005164
 2,0.00560010,-0.00602693,-0.00031251,0.00207900,-0.00287489,0.00081617
 ,0.18609836,0.00004580,-0.00004283,-0.00000791,-0.00006096,0.00011047,
 0.00004615,-0.00020740,-0.00018258,-0.00016401,-0.00051754,0.00110336,
 0.00032661,0.00043311,-0.00012544,0.00020514,0.00029263,0.00012003,-0.
 00054546,0.00026213,0.00008859,-0.00011510,-0.00005917,-0.00002289,0.0
 0001903,-0.00011059,-0.00000506,0.00001205,-0.00075454,-0.00028240,-0.
 00014915,0.00028364,-0.00010169,-0.00005161,0.00046975,0.00007264,0.00
 071934,-0.00789120,0.01050248,-0.00108361,0.13552575,-0.19471762,0.018
 55662,-0.00454398,-0.00007563,-0.00087740,0.00001538,-0.00001931,-0.00
 002010,-0.00000615,-0.00001562,-0.00001286,-0.00000337,0.00001287,0.00
 000703,-0.00000384,0.00000917,0.00000503,-0.00001612,-0.00002347,-0.00
 002454,-0.00004886,0.00000769,-0.00001503,0.00007641,-0.00005028,0.000
 07780,-0.00010934,0.00001919,-0.00000593,-0.00000297,-0.00001787,-0.00
 000262,-0.00001716,0.00003666,-0.00001598,0.00001698,0.00000561,0.0000
 0762,-0.00002211,0.00005853,0.00000986,0.00081939,0.00035135,0.0003211
 3,0.01086551,-0.01121927,-0.00134111,0.01198507,-0.01305509,0.00328573
 ,-0.14671229,0.20747311,0.00001882,-0.00001393,0.00000501,0.00000474,0
 .00002633,0.00000291,-0.00002041,-0.00003051,-0.00004477,0.00012122,0.
 00018505,0.00045604,0.00021975,0.00004273,-0.00005094,0.00003335,-0.00
 009763,0.00024867,-0.00059717,0.00001208,-0.00011809,0.00025839,0.0001
 0541,0.00014360,0.00014608,0.00008605,0.00007076,0.00096545,0.00040369
 ,0.00023221,-0.00033743,0.00010704,0.00005222,-0.00056004,-0.00006878,
 -0.00102401,-0.00112008,0.00130401,-0.00287754,-0.01621491,0.01863366,
 -0.04763713,-0.00077054,-0.00028192,0.00088440,0.00000505,-0.00001096,
 0.00000184,0.00000403,-0.00000364,0.00000024,0.00000001,0.00000182,0.0
 0000069,0.00000033,-0.00000285,-0.00000258,-0.00000558,-0.00000408,-0.
 00000241,-0.00003072,0.00000632,-0.00001973,-0.00003924,-0.00005656,0.
 00001528,0.00013132,0.00002946,-0.00064643,-0.00003486,0.00002813,0.00
 001847,0.00001655,-0.00008467,0.00004100,-0.00001847,-0.00002612,0.000
 00221,0.00002714,-0.00008868,-0.00001472,-0.00017128,-0.00006646,-0.00
 003264,-0.01946638,0.01748636,-0.00029563,0.01914667,-0.01845551,0.003
 10340,0.01829146,-0.01916152,0.04749350,0.00029144,0.00047730,0.000421
 97,0.00130154,0.00249665,-0.00052792,0.00791835,0.00164950,0.00257975,
 -0.00047497,-0.00078027,0.00095907,-0.00003798,-0.00031325,-0.00015330
 ,0.00003531,0.00014814,-0.00006940,0.00001387,0.00000315,0.00001624,-0
 .00000028,-0.00001786,-0.00001833,0.00000427,-0.00000095,0.00000332,0.
 00003543,0.00000524,0.00001824,-0.00000527,-0.00000186,-0.00004263,-0.
 00002260,-0.00000818,-0.00002685,-0.00010919,0.00015151,0.00004653,0.0
 0003613,-0.00005021,0.00000105,-0.00167685,0.00170433,0.00050422,-0.21
 903675,-0.07851104,-0.12408356,-0.01365826,-0.01035145,-0.01388278,0.0
 0051646,-0.00150758,0.00049375,-0.00274924,0.00389653,-0.00113106,0.00
 004379,0.00070081,0.00086417,0.00019745,-0.00011515,0.00001818,-0.0000
 3098,0.00001410,0.00001407,-0.00000141,0.00000305,-0.00000380,0.000003
 84,0.00000300,0.00000395,-0.00000105,-0.00000183,-0.00000131,-0.000002
 62,-0.00000068,-0.00000219,0.00003024,-0.00000063,-0.00001323,0.000036
 05,-0.00004341,0.00001112,-0.00000289,0.00000516,0.00000620,-0.0000092
 2,0.00000381,-0.00000801,0.00001724,0.00000553,-0.00000165,0.22794019,
 -0.00093282,-0.00082002,-0.00094949,0.00345117,-0.00194946,-0.00361455
 ,-0.01969526,-0.00497400,-0.01379798,-0.00235565,-0.00149309,0.0007525
 6,0.00014435,0.00047652,0.00028628,-0.00002474,0.00031513,-0.00020133,
 0.00006540,-0.00004634,-0.00008527,-0.00000496,0.00004893,0.00007676,-
 0.00001633,-0.00000429,0.00002426,0.00006654,0.00004467,-0.00006192,0.
 00000400,-0.00006560,0.00002558,-0.00002846,-0.00004025,0.00002693,0.0
 0070803,-0.00045235,0.00050103,-0.00003882,0.00011854,-0.00000555,0.00
 039133,0.00061680,0.00011995,-0.07905236,-0.09240660,-0.06678608,0.012
 39652,0.00859814,0.00780703,-0.00014912,0.00015256,0.00187940,0.004014
 25,-0.00007468,-0.00200496,0.00019833,-0.00074038,0.00021924,-0.000519
 73,0.00028768,-0.00002849,-0.00003508,0.00003857,0.00007232,0.00000181
 ,-0.00000271,0.00000324,-0.00001289,-0.00001533,-0.00002233,-0.0000097
 6,-0.00000042,-0.00000919,-0.00000070,-0.00000372,0.00000746,0.0000074
 8,0.00005779,-0.00002208,-0.00004817,0.00006572,-0.00003226,0.00000356
 ,-0.00000668,-0.00000504,0.00000831,-0.00001073,0.00000043,-0.00005167
 ,-0.00001957,-0.00000526,0.08114324,0.09183682,-0.00047349,-0.00038980
 ,-0.00037962,0.00004982,-0.00404440,0.00375967,-0.01059104,-0.00478611
 ,-0.00333267,0.00005816,0.00116297,-0.00316307,-0.00000909,0.00038597,
 0.00015697,-0.00009611,-0.00010030,0.00033349,-0.00003318,-0.00000201,
 -0.00008257,-0.00000830,0.00007623,0.00007270,-0.00002915,0.00002067,-
 0.00001326,0.00032112,-0.00011883,-0.00002675,-0.00024448,0.00007513,0
 .00020594,-0.00013458,-0.00003110,-0.00000652,0.00053945,-0.00007567,0
 .00021732,-0.00000243,0.00003405,0.00000455,-0.00038693,0.00080330,0.0
 0018842,-0.12441274,-0.06679859,-0.13080600,0.00016489,-0.00160481,0.0
 0335974,0.00133055,0.00132107,-0.00159178,-0.00106472,-0.00203174,0.00
 417097,0.00058238,0.00042520,-0.00048844,-0.00028416,0.00014753,-0.000
 03946,0.00003457,0.00000981,0.00001749,-0.00001089,0.00000019,0.000021
 38,-0.00001463,-0.00001679,-0.00001538,0.00000025,-0.00000088,-0.00001
 092,0.,0.00000211,0.00000482,0.00008678,0.00012124,-0.00013412,-0.0000
 4793,0.00006924,-0.00001352,0.00000666,-0.00000888,-0.00000379,-0.0000
 0256,-0.00001247,-0.00000109,-0.00002289,-0.00000529,-0.00000620,0.134
 51425,0.07509259,0.12782000,-0.00004210,0.00014737,0.00013254,0.002274
 71,0.00049861,-0.00221240,0.00069001,-0.00090139,0.00013852,-0.0003857
 4,0.00002855,0.00012807,0.00001200,-0.00011378,0.00001986,-0.00001968,
 0.00003485,-0.00006030,0.00001885,0.00000839,0.00002168,-0.00000118,-0
 .00000979,-0.00000808,0.00000091,-0.00000217,-0.00000179,-0.00001310,-
 0.00000871,-0.00000138,0.00000768,0.00000249,-0.00000223,0.00000750,0.
 00000539,0.00000293,0.00001668,-0.00002722,0.00001276,-0.00000218,0.00
 000276,0.00000105,0.00001118,0.00008992,0.00000781,-0.00144009,-0.0016
 2948,-0.00385176,-0.01419699,0.01238014,0.00018074,0.00057739,0.000098
 40,0.00124060,-0.27460380,0.12582350,-0.02017284,0.00267381,-0.0000981
 4,-0.00099617,0.00011117,-0.00008398,0.00008693,0.00000544,0.00000283,
 0.00000779,0.00000523,-0.00000109,-0.00000822,0.00000119,0.00000332,0.
 00000355,0.00000111,0.00000078,0.00000452,0.00000190,0.00000114,-0.000
 00023,0.00000025,0.00000209,-0.00000503,0.00000094,-0.00000054,-0.0000
 0177,0.00000016,-0.00000020,-0.00000023,0.00000182,0.00000095,0.000000
 67,-0.00000048,-0.00000047,-0.00000019,-0.00054675,0.00053336,0.000110
 68,0.28491195,0.00154335,-0.00078129,0.00026538,0.00045941,-0.00098966
 ,-0.00559046,-0.00047541,-0.00081395,-0.00013328,-0.00016075,-0.000172
 29,0.00023492,0.00007095,-0.00005594,0.00007943,0.00000436,0.00006447,
 -0.00002021,0.00000470,-0.00000156,0.00000298,0.00000027,-0.00000379,-
 0.00000380,-0.00000254,-0.00000059,-0.00000278,0.00000326,-0.00000744,
 -0.00000021,-0.00000560,0.00000626,0.00000605,-0.00000122,0.00000169,0
 .00000109,0.00001934,-0.00000391,0.00000842,-0.00000016,-0.00000039,0.
 00000355,0.00004400,0.00009075,0.00001996,-0.00161607,0.00081913,-0.00
 351150,-0.01098503,0.00812431,-0.00191026,-0.00108598,0.00038188,0.001
 27873,0.12728750,-0.12225013,0.00135117,0.02291080,-0.00740159,0.00188
 323,-0.00031932,-0.00023801,-0.00015489,-0.00000333,0.00000304,0.00000
 456,0.00000136,0.00000014,-0.00000173,-0.00000005,0.00000172,0.0000013
 5,-0.00000108,0.,0.00000330,0.00000134,0.00000071,0.00000003,0.0000021
 2,0.00000423,-0.00000412,-0.00000043,0.00000025,0.00000114,-0.00000012
 ,-0.00000008,0.00000008,0.00000199,0.00000100,0.00000035,0.00000076,-0
 .00000005,-0.00000003,-0.00055308,0.00049000,0.00009151,-0.13597477,0.
 12296078,0.00098544,-0.00037190,0.00003670,-0.00213518,-0.00557825,0.0
 0393426,0.00033649,-0.00030410,-0.00096253,0.00005909,0.00026580,-0.00
 043302,0.00009938,0.00005496,-0.00004932,-0.00005160,-0.00002114,0.000
 06530,-0.00000431,0.00001159,0.00001086,-0.00000116,-0.00000157,-0.000
 00205,-0.00000313,0.00000025,-0.00000320,-0.00000699,-0.00000771,-0.00
 000109,0.00000731,0.00001230,-0.00000491,0.00000475,0.00000489,0.00000
 153,0.00003548,0.00001678,0.00001645,-0.00000024,0.00000403,0.00000566
 ,0.00001215,0.00000857,0.00007068,-0.00383320,-0.00355841,0.00156668,-
 0.01441220,0.00785390,0.00265739,0.00051207,0.00177108,-0.00107939,-0.
 01924638,0.00070929,-0.04650818,0.01329089,-0.00761580,0.00572450,-0.0
 0010043,-0.00002777,-0.00029576,0.00000932,-0.00000457,-0.00000281,0.0
 0000127,-0.00000073,-0.00000222,-0.00000004,0.00000247,0.00000349,-0.0
 0000018,-0.00000064,0.00000624,0.00000203,0.00000076,-0.00000032,0.000
 00620,-0.00000474,-0.00000431,0.00000122,-0.00000030,-0.00000153,0.000
 00042,-0.00000052,-0.00000049,0.00000263,0.00000079,0.00000035,-0.0000
 0010,0.00000010,-0.00000021,-0.00057596,0.00054709,0.00007864,0.023761
 29,0.00375001,0.03788509,0.00213857,-0.00212328,0.00094104,-0.01459242
 ,-0.01164046,-0.01559057,-0.00298007,0.00374007,-0.00097489,-0.0000555
 5,-0.00120061,-0.00074683,0.00016791,0.00014393,0.00012525,0.00002760,
 0.00005080,0.00004478,-0.00001143,-0.00001484,-0.00004260,0.00000165,0
 .00002059,0.00002646,-0.00000558,0.00000056,0.00000549,0.00003004,0.00
 001046,-0.00001098,-0.00002712,-0.00001552,0.00003364,-0.00001472,-0.0
 0001053,0.00000383,0.00003270,-0.00015917,0.00001540,-0.00002788,0.000
 06017,-0.00000475,-0.00054043,0.00035488,-0.00002390,-0.00032873,0.001
 15390,0.00093371,0.00232286,0.00223345,-0.00074882,0.00019513,0.000515
 88,0.00030293,0.00790091,0.00299784,0.00389219,-0.21584151,-0.07756756
 ,-0.12381768,-0.00036956,-0.00001967,0.00007897,-0.00002093,0.00000484
 ,0.00000301,-0.00000502,-0.00000042,0.00001031,-0.00000587,-0.00000584
 ,-0.00000908,-0.00000398,0.00000069,-0.00000927,-0.00000249,-0.0000012
 2,0.00000222,0.00000007,0.00001574,-0.00000495,-0.00001554,0.00001687,
 -0.00000247,0.00000266,-0.00000113,-0.00000122,0.00000165,-0.00000305,
 -0.00000103,-0.00002154,-0.00000900,-0.00000141,-0.00005529,-0.0001611
 6,0.00006978,-0.00007978,-0.00117057,0.00124365,0.22218369,-0.00179547
 ,0.00036306,0.00149811,0.01249052,0.00960254,0.00811882,0.00330223,-0.
 00021962,-0.00194679,0.00037472,0.00056901,0.00052259,-0.00002243,0.00
 000796,-0.00002957,-0.00002723,0.00000093,-0.00001252,0.00000160,0.000
 01021,0.00002231,-0.00000091,-0.00001803,-0.00001621,0.00000271,-0.000
 00145,-0.00000485,-0.00004696,0.00000174,0.00000793,0.00002961,0.00000
 094,-0.00001794,0.00002282,0.00001006,-0.00000039,0.00000339,0.0001038
 2,0.00001942,0.00001598,-0.00003830,0.00000758,0.00035721,-0.00027024,
 0.00008518,0.00047103,-0.00094102,0.00017674,0.00253566,-0.00087291,-0
 .00412230,-0.00051830,-0.00098694,-0.00096750,-0.02038395,-0.00587176,
 -0.01404398,-0.07866081,-0.09324958,-0.06914629,-0.00001120,-0.0000986
 9,0.00031381,0.00000937,-0.00000369,-0.00000223,0.00000236,0.00000009,
 -0.00000437,0.00000510,0.00000574,0.00000471,-0.00000027,0.00000390,0.
 00000673,0.00000195,0.00000068,-0.00000127,-0.00000025,-0.00001279,0.0
 0000003,0.00001178,-0.00001272,0.00000473,-0.00000196,0.00000064,0.000
 00011,0.00000030,0.00000226,0.00000125,0.00001478,0.00000490,0.0000009
 8,-0.00015363,-0.00002167,0.00018886,-0.00081311,-0.00022970,0.0024835
 0,0.08278336,0.09216062,0.00110319,0.00139868,-0.00191410,-0.00049373,
 -0.00213015,0.00358586,-0.00124672,-0.00166314,0.00344695,0.00023542,-
 0.00010837,-0.00002590,0.00004668,0.00003985,0.00005659,-0.00001404,0.
 00001126,0.00003151,-0.00000798,-0.00000263,-0.00000670,-0.00000089,0.
 00000534,0.00000057,-0.00000264,0.00000056,0.00000027,0.00001634,-0.00
 000244,0.00000029,-0.00000692,0.00000102,0.00000068,-0.00000847,-0.000
 00287,-0.00000221,0.00002151,0.00000854,-0.00001607,0.00000317,-0.0000
 0045,0.00000371,0.00000526,0.00004509,-0.00006593,0.00055036,0.0004480
 9,-0.00036048,-0.00057379,-0.00425716,0.00454798,-0.00034065,-0.000547
 52,-0.00024855,-0.01065487,-0.00423228,-0.00407381,-0.12450509,-0.0687
 0512,-0.13025929,0.00010034,0.00030667,-0.00036748,-0.00000109,0.00000
 048,-0.00000147,-0.00000184,0.00000058,0.00000258,-0.00000023,-0.00000
 155,0.00000101,0.00000006,-0.00000388,0.00000172,-0.00000028,0.0000000
 5,0.00000018,-0.00000333,-0.00000036,0.00000486,-0.00000465,0.00000345
 ,-0.00000106,-0.00000038,-0.00000004,0.,0.00000043,-0.00000020,-0.0000
 0015,0.00000051,-0.00000002,0.00000057,0.00006589,0.00018963,-0.000296
 93,0.00146063,0.00234603,-0.00271247,0.13425779,0.07685284,0.12866729\
 \0.00000687,-0.00000074,-0.00000497,-0.00000483,0.00000965,0.00000208,
 -0.00000085,-0.00000261,0.00001329,0.00001036,0.00000982,0.00001191,0.
 00002174,-0.00000169,-0.00001847,-0.00001763,-0.00000099,0.00002501,-0
 .00001598,0.00001288,-0.00001653,-0.00000303,-0.00000118,-0.00000429,0
 .00000742,-0.00002018,0.00002486,0.00001622,0.00002023,-0.00001791,-0.
 00000087,0.00000561,0.00000915,-0.00000259,-0.00000143,0.00001711,0.00
 001254,-0.00001408,-0.00000918,-0.00001506,-0.00000324,0.00000723,-0.0
 0001737,0.00001379,-0.00001174,0.00000234,-0.00001105,-0.00000825,-0.0
 0000592,0.00000837,0.00000866,0.00000485,-0.00001016,0.00000117,0.0000
 0422,0.00001164,0.00000315,0.00000463,-0.00000270,-0.00001013,-0.00000
 204,0.00000279,-0.00001156,-0.00000133,-0.00000302,-0.00001496,0.00000
 225,0.00000183,0.00001022,0.00000530,0.00000589,-0.00000498,-0.0000019
 8,0.00000650,-0.00000373,-0.00000317,0.00000363,-0.00000169,0.00000415
 ,-0.00000017,0.00000673,-0.00000819,-0.00001335,-0.00000535,-0.0000003
 2,-0.00000661,-0.00000351,-0.00000219,-0.00001448,-0.00000067,-0.00000
 393,-0.00001048,0.00000059,-0.00000102,-0.00000374,0.00000545,0.000003
 53,0.00000063,0.00000182,0.00000187,0.00000864,-0.00000051\\\@


 WE ARE PERHAPS NOT FAR REMOVED FROM THE TIME WHEN WE SHALL BE ABLE TO SUBMIT
 THE BULK OF CHEMICAL PHENOMENA TO CALCULATION.

            -- JOSEPH LOUIS GAY-LUSSAC
               MEMOIRES DE LA SOCIETE D'ARCUEIL, 2, 207 (1808)
 Job cpu time:  0 days  8 hours 48 minutes  1.0 seconds.
 File lengths (MBytes):  RWF=    860 Int=      0 D2E=      0 Chk=     20 Scr=      1
 Normal termination of Gaussian 09 at Fri Mar 22 23:24:02 2019.
