 Entering Gaussian System, Link 0=g09
 Initial command:
 /home/yuheng/proj/yuheng/g09/l1.exe /home/yuheng/proj/yuheng/g09_scratch/Gau-36048.inp -scrdir=/home/yuheng/proj/yuheng/g09_scratch/
 Entering Link 1 = /home/yuheng/proj/yuheng/g09/l1.exe PID=     36049.
  
 Copyright (c) 1988,1990,1992,1993,1995,1998,2003,2009,2010,
            Gaussian, Inc.  All Rights Reserved.
  
 This is part of the Gaussian(R) 09 program.  It is based on
 the Gaussian(R) 03 system (copyright 2003, Gaussian, Inc.),
 the Gaussian(R) 98 system (copyright 1998, Gaussian, Inc.),
 the Gaussian(R) 94 system (copyright 1995, Gaussian, Inc.),
 the Gaussian 92(TM) system (copyright 1992, Gaussian, Inc.),
 the Gaussian 90(TM) system (copyright 1990, Gaussian, Inc.),
 the Gaussian 88(TM) system (copyright 1988, Gaussian, Inc.),
 the Gaussian 86(TM) system (copyright 1986, Carnegie Mellon
 University), and the Gaussian 82(TM) system (copyright 1983,
 Carnegie Mellon University). Gaussian is a federally registered
 trademark of Gaussian, Inc.
  
 This software contains proprietary and confidential information,
 including trade secrets, belonging to Gaussian, Inc.
  
 This software is provided under written license and may be
 used, copied, transmitted, or stored only in accord with that
 written license.
  
 The following legend is applicable only to US Government
 contracts under FAR:
  
                    RESTRICTED RIGHTS LEGEND
  
 Use, reproduction and disclosure by the US Government is
 subject to restrictions as set forth in subparagraphs (a)
 and (c) of the Commercial Computer Software - Restricted
 Rights clause in FAR 52.227-19.
  
 Gaussian, Inc.
 340 Quinnipiac St., Bldg. 40, Wallingford CT 06492
  
  
 ---------------------------------------------------------------
 Warning -- This program may not be used in any manner that
 competes with the business of Gaussian, Inc. or will provide
 assistance to any competitor of Gaussian, Inc.  The licensee
 of this program is prohibited from giving any competitor of
 Gaussian, Inc. access to this program.  By using this program,
 the user acknowledges that Gaussian, Inc. is engaged in the
 business of creating and licensing software in the field of
 computational chemistry and represents and warrants to the
 licensee that it is not a competitor of Gaussian, Inc. and that
 it will not use this program in any manner prohibited above.
 ---------------------------------------------------------------
  

 Cite this work as:
 Gaussian 09, Revision B.01,
 M. J. Frisch, G. W. Trucks, H. B. Schlegel, G. E. Scuseria, 
 M. A. Robb, J. R. Cheeseman, G. Scalmani, V. Barone, B. Mennucci, 
 G. A. Petersson, H. Nakatsuji, M. Caricato, X. Li, H. P. Hratchian, 
 A. F. Izmaylov, J. Bloino, G. Zheng, J. L. Sonnenberg, M. Hada, 
 M. Ehara, K. Toyota, R. Fukuda, J. Hasegawa, M. Ishida, T. Nakajima, 
 Y. Honda, O. Kitao, H. Nakai, T. Vreven, J. A. Montgomery, Jr., 
 J. E. Peralta, F. Ogliaro, M. Bearpark, J. J. Heyd, E. Brothers, 
 K. N. Kudin, V. N. Staroverov, T. Keith, R. Kobayashi, J. Normand, 
 K. Raghavachari, A. Rendell, J. C. Burant, S. S. Iyengar, J. Tomasi, 
 M. Cossi, N. Rega, J. M. Millam, M. Klene, J. E. Knox, J. B. Cross, 
 V. Bakken, C. Adamo, J. Jaramillo, R. Gomperts, R. E. Stratmann, 
 O. Yazyev, A. J. Austin, R. Cammi, C. Pomelli, J. W. Ochterski, 
 R. L. Martin, K. Morokuma, V. G. Zakrzewski, G. A. Voth, 
 P. Salvador, J. J. Dannenberg, S. Dapprich, A. D. Daniels, 
 O. Farkas, J. B. Foresman, J. V. Ortiz, J. Cioslowski, 
 and D. J. Fox, Gaussian, Inc., Wallingford CT, 2010.
 
 ******************************************
 Gaussian 09:  EM64L-G09RevB.01 12-Aug-2010
                22-Mar-2019 
 ******************************************
 %mem=16gb
 %nprocshared=20
 Will use up to   20 processors via shared memory.
 %chk=1b-conf-1.chk
 ----------------------------------------------------------------------
 # m062x/6-31+G(d,p) opt freq=noraman integral(ultrafinegrid) scrf=(ief
 pcm,read,solvent=methanol)
 ----------------------------------------------------------------------
 1/14=-1,18=20,19=15,26=3,38=1,40=2/1,3;
 2/9=110,12=2,17=6,18=5,40=1/2;
 3/5=1,6=6,7=111,11=2,16=1,25=1,30=1,70=2203,71=1,72=3,74=-55,75=-5/1,2,3;
 4//1;
 5/5=2,38=5,53=3/2;
 6/7=2,8=2,9=2,10=2,28=1/1;
 7//1,2,3,16;
 1/14=-1,18=20,19=15/3(2);
 2/9=110/2;
 99//99;
 2/9=110/2;
 3/5=1,6=6,7=111,11=2,16=1,25=1,30=1,70=2205,71=1,72=3,74=-55,75=-5/1,2,3;
 4/5=5,16=3/1;
 5/5=2,38=5,53=3/2;
 7//1,2,3,16;
 1/14=-1,18=20,19=15/3(-5);
 2/9=110/2;
 6/7=2,8=2,9=2,10=2,19=2,28=1/1;
 99/9=1/99;
 ----------------------------------------------------------------------
 Candidate Structure: 1b, Conformer: 1 geometry optimization and freque
 ncy calculation with methanol solvation
 ----------------------------------------------------------------------
 Symbolic Z-matrix:
 Charge =  0 Multiplicity = 1
 O                    -1.48363   0.3981   -1.08499 
 C                    -2.00255   1.60955  -0.72566 
 C                    -1.23987   2.81081  -0.77891 
 C                     0.1776    2.8667   -1.23187 
 N                     0.80963   1.87505  -1.71069 
 C                     2.17641   2.28824  -1.91322 
 C                     2.80828   1.52359  -3.10789 
 O                     1.92623   1.61044  -4.21131 
 C                     4.24666   1.92122  -3.51389 
 C                     5.30557   1.66791  -2.4363 
 O                     6.51694   2.162    -2.80124 
 O                     5.09173   1.08745  -1.3768 
 C                     2.10746   3.83215  -1.91863 
 C                     1.90046   4.55624  -3.26458 
 O                     0.91361   4.01799  -1.1824 
 C                    -1.84479   4.02527  -0.38492 
 C                    -3.18178   4.05179   0.05237 
 Cl                   -3.90227   5.54508   0.52785 
 C                    -3.93076   2.86234   0.10167 
 C                    -3.34092   1.64503  -0.28645 
 H                    -0.57621   0.50366  -1.36324 
 H                     2.73177   2.0036   -1.01667 
 H                     2.83      0.46662  -2.83431 
 H                     1.05635   1.50889  -3.84124 
 H                     4.30188   2.96548  -3.81024 
 H                     4.5379    1.34432  -4.39195 
 H                     7.15144   1.98097  -2.12468 
 H                     2.95618   4.26285  -1.38587 
 H                     1.04988   4.15122  -3.81302 
 H                     1.70682   5.61626  -3.1008 
 H                     2.77125   4.48888  -3.91205 
 H                    -1.2872    4.95012  -0.41629 
 H                    -4.95711   2.88355   0.43758 
 H                    -3.91805   0.7325   -0.24635 
 

 GradGradGradGradGradGradGradGradGradGradGradGradGradGradGradGradGradGrad
 Berny optimization.
 Initialization pass.
                           ----------------------------
                           !    Initial Parameters    !
                           ! (Angstroms and Degrees)  !
 --------------------------                            --------------------------
 ! Name  Definition              Value          Derivative Info.                !
 --------------------------------------------------------------------------------
 ! R1    R(1,2)                  1.366          estimate D2E/DX2                !
 ! R2    R(1,21)                 0.955          estimate D2E/DX2                !
 ! R3    R(2,3)                  1.4239         estimate D2E/DX2                !
 ! R4    R(2,20)                 1.409          estimate D2E/DX2                !
 ! R5    R(3,4)                  1.4891         estimate D2E/DX2                !
 ! R6    R(3,16)                 1.4128         estimate D2E/DX2                !
 ! R7    R(4,5)                  1.2697         estimate D2E/DX2                !
 ! R8    R(4,15)                 1.3673         estimate D2E/DX2                !
 ! R9    R(5,6)                  1.4422         estimate D2E/DX2                !
 ! R10   R(6,7)                  1.5528         estimate D2E/DX2                !
 ! R11   R(6,13)                 1.5455         estimate D2E/DX2                !
 ! R12   R(6,22)                 1.0924         estimate D2E/DX2                !
 ! R13   R(7,8)                  1.4153         estimate D2E/DX2                !
 ! R14   R(7,9)                  1.5466         estimate D2E/DX2                !
 ! R15   R(7,23)                 1.092          estimate D2E/DX2                !
 ! R16   R(8,24)                 0.9508         estimate D2E/DX2                !
 ! R17   R(9,10)                 1.5319         estimate D2E/DX2                !
 ! R18   R(9,25)                 1.0869         estimate D2E/DX2                !
 ! R19   R(9,26)                 1.0902         estimate D2E/DX2                !
 ! R20   R(10,11)                1.3582         estimate D2E/DX2                !
 ! R21   R(10,12)                1.2269         estimate D2E/DX2                !
 ! R22   R(11,27)                0.945          estimate D2E/DX2                !
 ! R23   R(13,14)                1.5423         estimate D2E/DX2                !
 ! R24   R(13,15)                1.4149         estimate D2E/DX2                !
 ! R25   R(13,28)                1.0907         estimate D2E/DX2                !
 ! R26   R(14,29)                1.0901         estimate D2E/DX2                !
 ! R27   R(14,30)                1.0899         estimate D2E/DX2                !
 ! R28   R(14,31)                1.0872         estimate D2E/DX2                !
 ! R29   R(16,17)                1.4069         estimate D2E/DX2                !
 ! R30   R(16,32)                1.0804         estimate D2E/DX2                !
 ! R31   R(17,18)                1.7248         estimate D2E/DX2                !
 ! R32   R(17,19)                1.4065         estimate D2E/DX2                !
 ! R33   R(19,20)                1.4073         estimate D2E/DX2                !
 ! R34   R(19,33)                1.0801         estimate D2E/DX2                !
 ! R35   R(20,34)                1.0805         estimate D2E/DX2                !
 ! A1    A(2,1,21)             109.8501         estimate D2E/DX2                !
 ! A2    A(1,2,3)              122.3352         estimate D2E/DX2                !
 ! A3    A(1,2,20)             117.7194         estimate D2E/DX2                !
 ! A4    A(3,2,20)             119.9452         estimate D2E/DX2                !
 ! A5    A(2,3,4)              123.5648         estimate D2E/DX2                !
 ! A6    A(2,3,16)             119.0402         estimate D2E/DX2                !
 ! A7    A(4,3,16)             117.395          estimate D2E/DX2                !
 ! A8    A(3,4,5)              124.0025         estimate D2E/DX2                !
 ! A9    A(3,4,15)             122.2061         estimate D2E/DX2                !
 ! A10   A(5,4,15)             113.7853         estimate D2E/DX2                !
 ! A11   A(4,5,6)              107.5155         estimate D2E/DX2                !
 ! A12   A(5,6,7)              110.6473         estimate D2E/DX2                !
 ! A13   A(5,6,13)             104.1477         estimate D2E/DX2                !
 ! A14   A(5,6,22)             106.9723         estimate D2E/DX2                !
 ! A15   A(7,6,13)             120.4908         estimate D2E/DX2                !
 ! A16   A(7,6,22)             107.2332         estimate D2E/DX2                !
 ! A17   A(13,6,22)            106.6111         estimate D2E/DX2                !
 ! A18   A(6,7,8)              108.4217         estimate D2E/DX2                !
 ! A19   A(6,7,9)              116.989          estimate D2E/DX2                !
 ! A20   A(6,7,23)             106.9762         estimate D2E/DX2                !
 ! A21   A(8,7,9)              111.0497         estimate D2E/DX2                !
 ! A22   A(8,7,23)             105.4922         estimate D2E/DX2                !
 ! A23   A(9,7,23)             107.2248         estimate D2E/DX2                !
 ! A24   A(7,8,24)             105.0807         estimate D2E/DX2                !
 ! A25   A(7,9,10)             114.5642         estimate D2E/DX2                !
 ! A26   A(7,9,25)             111.4597         estimate D2E/DX2                !
 ! A27   A(7,9,26)             108.8945         estimate D2E/DX2                !
 ! A28   A(10,9,25)            108.3944         estimate D2E/DX2                !
 ! A29   A(10,9,26)            107.1207         estimate D2E/DX2                !
 ! A30   A(25,9,26)            105.9749         estimate D2E/DX2                !
 ! A31   A(9,10,11)            111.5527         estimate D2E/DX2                !
 ! A32   A(9,10,12)            124.4185         estimate D2E/DX2                !
 ! A33   A(11,10,12)           124.0283         estimate D2E/DX2                !
 ! A34   A(10,11,27)           109.6806         estimate D2E/DX2                !
 ! A35   A(6,13,14)            118.5587         estimate D2E/DX2                !
 ! A36   A(6,13,15)             99.6159         estimate D2E/DX2                !
 ! A37   A(6,13,28)            110.9809         estimate D2E/DX2                !
 ! A38   A(14,13,15)           106.2118         estimate D2E/DX2                !
 ! A39   A(14,13,28)           110.2006         estimate D2E/DX2                !
 ! A40   A(15,13,28)           110.5203         estimate D2E/DX2                !
 ! A41   A(13,14,29)           111.6754         estimate D2E/DX2                !
 ! A42   A(13,14,30)           110.4454         estimate D2E/DX2                !
 ! A43   A(13,14,31)           112.5274         estimate D2E/DX2                !
 ! A44   A(29,14,30)           107.3565         estimate D2E/DX2                !
 ! A45   A(29,14,31)           107.597          estimate D2E/DX2                !
 ! A46   A(30,14,31)           106.9796         estimate D2E/DX2                !
 ! A47   A(4,15,13)            108.9516         estimate D2E/DX2                !
 ! A48   A(3,16,17)            120.647          estimate D2E/DX2                !
 ! A49   A(3,16,32)            120.4493         estimate D2E/DX2                !
 ! A50   A(17,16,32)           118.9036         estimate D2E/DX2                !
 ! A51   A(16,17,18)           119.9297         estimate D2E/DX2                !
 ! A52   A(16,17,19)           120.0667         estimate D2E/DX2                !
 ! A53   A(18,17,19)           120.0036         estimate D2E/DX2                !
 ! A54   A(17,19,20)           119.912          estimate D2E/DX2                !
 ! A55   A(17,19,33)           120.0203         estimate D2E/DX2                !
 ! A56   A(20,19,33)           120.0678         estimate D2E/DX2                !
 ! A57   A(2,20,19)            120.3888         estimate D2E/DX2                !
 ! A58   A(2,20,34)            119.8455         estimate D2E/DX2                !
 ! A59   A(19,20,34)           119.7657         estimate D2E/DX2                !
 ! D1    D(21,1,2,3)            -0.2461         estimate D2E/DX2                !
 ! D2    D(21,1,2,20)          179.9442         estimate D2E/DX2                !
 ! D3    D(1,2,3,4)              0.3193         estimate D2E/DX2                !
 ! D4    D(1,2,3,16)          -179.7114         estimate D2E/DX2                !
 ! D5    D(20,2,3,4)          -179.8752         estimate D2E/DX2                !
 ! D6    D(20,2,3,16)            0.0942         estimate D2E/DX2                !
 ! D7    D(1,2,20,19)          179.7828         estimate D2E/DX2                !
 ! D8    D(1,2,20,34)           -0.1633         estimate D2E/DX2                !
 ! D9    D(3,2,20,19)           -0.0316         estimate D2E/DX2                !
 ! D10   D(3,2,20,34)         -179.9778         estimate D2E/DX2                !
 ! D11   D(2,3,4,5)              5.7135         estimate D2E/DX2                !
 ! D12   D(2,3,4,15)          -175.2415         estimate D2E/DX2                !
 ! D13   D(16,3,4,5)          -174.2563         estimate D2E/DX2                !
 ! D14   D(16,3,4,15)            4.7887         estimate D2E/DX2                !
 ! D15   D(2,3,16,17)           -0.0957         estimate D2E/DX2                !
 ! D16   D(2,3,16,32)         -179.9992         estimate D2E/DX2                !
 ! D17   D(4,3,16,17)          179.8755         estimate D2E/DX2                !
 ! D18   D(4,3,16,32)           -0.028          estimate D2E/DX2                !
 ! D19   D(3,4,5,6)           -174.7696         estimate D2E/DX2                !
 ! D20   D(15,4,5,6)             6.1135         estimate D2E/DX2                !
 ! D21   D(3,4,15,13)         -168.2289         estimate D2E/DX2                !
 ! D22   D(5,4,15,13)           10.9059         estimate D2E/DX2                !
 ! D23   D(4,5,6,7)           -149.7889         estimate D2E/DX2                !
 ! D24   D(4,5,6,13)           -18.932          estimate D2E/DX2                !
 ! D25   D(4,5,6,22)            93.7225         estimate D2E/DX2                !
 ! D26   D(5,6,7,8)             49.6346         estimate D2E/DX2                !
 ! D27   D(5,6,7,9)            176.11           estimate D2E/DX2                !
 ! D28   D(5,6,7,23)           -63.6963         estimate D2E/DX2                !
 ! D29   D(13,6,7,8)           -72.0336         estimate D2E/DX2                !
 ! D30   D(13,6,7,9)            54.4418         estimate D2E/DX2                !
 ! D31   D(13,6,7,23)          174.6355         estimate D2E/DX2                !
 ! D32   D(22,6,7,8)           165.9616         estimate D2E/DX2                !
 ! D33   D(22,6,7,9)           -67.563          estimate D2E/DX2                !
 ! D34   D(22,6,7,23)           52.6307         estimate D2E/DX2                !
 ! D35   D(5,6,13,14)          -90.8757         estimate D2E/DX2                !
 ! D36   D(5,6,13,15)           23.6189         estimate D2E/DX2                !
 ! D37   D(5,6,13,28)          140.0903         estimate D2E/DX2                !
 ! D38   D(7,6,13,14)           33.9043         estimate D2E/DX2                !
 ! D39   D(7,6,13,15)          148.3989         estimate D2E/DX2                !
 ! D40   D(7,6,13,28)          -95.1297         estimate D2E/DX2                !
 ! D41   D(22,6,13,14)         156.2103         estimate D2E/DX2                !
 ! D42   D(22,6,13,15)         -89.2951         estimate D2E/DX2                !
 ! D43   D(22,6,13,28)          27.1763         estimate D2E/DX2                !
 ! D44   D(6,7,8,24)           -40.0361         estimate D2E/DX2                !
 ! D45   D(9,7,8,24)          -169.8817         estimate D2E/DX2                !
 ! D46   D(23,7,8,24)           74.2736         estimate D2E/DX2                !
 ! D47   D(6,7,9,10)            63.0621         estimate D2E/DX2                !
 ! D48   D(6,7,9,25)           -60.4751         estimate D2E/DX2                !
 ! D49   D(6,7,9,26)          -177.0331         estimate D2E/DX2                !
 ! D50   D(8,7,9,10)          -171.7688         estimate D2E/DX2                !
 ! D51   D(8,7,9,25)            64.694          estimate D2E/DX2                !
 ! D52   D(8,7,9,26)           -51.8641         estimate D2E/DX2                !
 ! D53   D(23,7,9,10)          -56.9998         estimate D2E/DX2                !
 ! D54   D(23,7,9,25)          179.463          estimate D2E/DX2                !
 ! D55   D(23,7,9,26)           62.905          estimate D2E/DX2                !
 ! D56   D(7,9,10,11)         -173.7321         estimate D2E/DX2                !
 ! D57   D(7,9,10,12)            6.5156         estimate D2E/DX2                !
 ! D58   D(25,9,10,11)         -48.5687         estimate D2E/DX2                !
 ! D59   D(25,9,10,12)         131.6791         estimate D2E/DX2                !
 ! D60   D(26,9,10,11)          65.3801         estimate D2E/DX2                !
 ! D61   D(26,9,10,12)        -114.3721         estimate D2E/DX2                !
 ! D62   D(9,10,11,27)        -179.2062         estimate D2E/DX2                !
 ! D63   D(12,10,11,27)          0.5472         estimate D2E/DX2                !
 ! D64   D(6,13,14,29)          51.2256         estimate D2E/DX2                !
 ! D65   D(6,13,14,30)         170.6166         estimate D2E/DX2                !
 ! D66   D(6,13,14,31)         -69.9089         estimate D2E/DX2                !
 ! D67   D(15,13,14,29)        -59.648          estimate D2E/DX2                !
 ! D68   D(15,13,14,30)         59.743          estimate D2E/DX2                !
 ! D69   D(15,13,14,31)        179.2175         estimate D2E/DX2                !
 ! D70   D(28,13,14,29)       -179.3811         estimate D2E/DX2                !
 ! D71   D(28,13,14,30)        -59.9902         estimate D2E/DX2                !
 ! D72   D(28,13,14,31)         59.4843         estimate D2E/DX2                !
 ! D73   D(6,13,15,4)          -20.8818         estimate D2E/DX2                !
 ! D74   D(14,13,15,4)         102.7745         estimate D2E/DX2                !
 ! D75   D(28,13,15,4)        -137.701          estimate D2E/DX2                !
 ! D76   D(3,16,17,18)        -179.949          estimate D2E/DX2                !
 ! D77   D(3,16,17,19)           0.034          estimate D2E/DX2                !
 ! D78   D(32,16,17,18)         -0.044          estimate D2E/DX2                !
 ! D79   D(32,16,17,19)        179.9391         estimate D2E/DX2                !
 ! D80   D(16,17,19,20)          0.0302         estimate D2E/DX2                !
 ! D81   D(16,17,19,33)        179.9947         estimate D2E/DX2                !
 ! D82   D(18,17,19,20)       -179.9868         estimate D2E/DX2                !
 ! D83   D(18,17,19,33)         -0.0223         estimate D2E/DX2                !
 ! D84   D(17,19,20,2)          -0.0311         estimate D2E/DX2                !
 ! D85   D(17,19,20,34)        179.9151         estimate D2E/DX2                !
 ! D86   D(33,19,20,2)        -179.9956         estimate D2E/DX2                !
 ! D87   D(33,19,20,34)         -0.0494         estimate D2E/DX2                !
 --------------------------------------------------------------------------------
 Trust Radius=3.00D-01 FncErr=1.00D-07 GrdErr=1.00D-06
 Number of steps in this run=    191 maximum allowed number of steps=    204.
 GradGradGradGradGradGradGradGradGradGradGradGradGradGradGradGradGradGrad

                          Input orientation:                          
 ---------------------------------------------------------------------
 Center     Atomic      Atomic             Coordinates (Angstroms)
 Number     Number       Type             X           Y           Z
 ---------------------------------------------------------------------
      1          8           0       -1.483632    0.398095   -1.084986
      2          6           0       -2.002546    1.609554   -0.725660
      3          6           0       -1.239868    2.810813   -0.778906
      4          6           0        0.177600    2.866700   -1.231866
      5          7           0        0.809629    1.875054   -1.710685
      6          6           0        2.176415    2.288239   -1.913219
      7          6           0        2.808278    1.523592   -3.107887
      8          8           0        1.926228    1.610440   -4.211315
      9          6           0        4.246658    1.921218   -3.513887
     10          6           0        5.305565    1.667905   -2.436302
     11          8           0        6.516936    2.162000   -2.801235
     12          8           0        5.091725    1.087452   -1.376800
     13          6           0        2.107460    3.832151   -1.918634
     14          6           0        1.900459    4.556239   -3.264577
     15          8           0        0.913608    4.017993   -1.182398
     16          6           0       -1.844786    4.025275   -0.384916
     17          6           0       -3.181780    4.051786    0.052369
     18         17           0       -3.902268    5.545077    0.527851
     19          6           0       -3.930763    2.862343    0.101665
     20          6           0       -3.340922    1.645032   -0.286454
     21          1           0       -0.576214    0.503664   -1.363238
     22          1           0        2.731773    2.003598   -1.016668
     23          1           0        2.829996    0.466617   -2.834306
     24          1           0        1.056354    1.508886   -3.841242
     25          1           0        4.301880    2.965477   -3.810244
     26          1           0        4.537897    1.344319   -4.391953
     27          1           0        7.151438    1.980970   -2.124676
     28          1           0        2.956176    4.262854   -1.385873
     29          1           0        1.049882    4.151223   -3.813016
     30          1           0        1.706820    5.616262   -3.100804
     31          1           0        2.771254    4.488884   -3.912048
     32          1           0       -1.287200    4.950123   -0.416290
     33          1           0       -4.957112    2.883548    0.437580
     34          1           0       -3.918045    0.732503   -0.246345
 ---------------------------------------------------------------------
                    Distance matrix (angstroms):
                    1          2          3          4          5
     1  O    0.000000
     2  C    1.366023   0.000000
     3  C    2.444241   1.423916   0.000000
     4  C    2.979140   2.567041   1.489131   0.000000
     5  N    2.798563   2.991503   2.438092   1.269681   0.000000
     6  C    4.201733   4.397116   3.637408   2.189548   1.442167
     7  C    4.876409   5.369024   4.844438   3.499123   2.463797
     8  O    4.782349   5.252148   4.821461   3.676004   2.751357
     9  C    6.407471   6.850102   6.194632   4.760125   3.881602
    10  C    7.037874   7.505877   6.848058   5.402203   4.558823
    11  O    8.370541   8.786056   8.042312   6.568615   5.817645
    12  O    6.617831   7.143196   6.589121   5.228322   4.366708
    13  C    5.038219   4.822372   3.680586   2.264532   2.357506
    14  C    5.787301   5.510218   4.368836   3.155107   3.285307
    15  O    4.342800   3.809612   2.501509   1.367344   2.209544
    16  C    3.711733   2.444730   1.412824   2.479852   3.664292
    17  C    4.186495   2.821421   2.449909   3.786703   4.876255
    18  Cl   5.911215   4.546270   4.033880   5.188028   6.378251
    19  C    3.670028   2.443761   2.831780   4.319372   5.170171
    20  C    2.375296   1.409046   2.452750   3.842691   4.394134
    21  H    0.954975   1.914137   2.470793   2.483834   1.980402
    22  H    4.511313   4.759594   4.059810   2.704636   2.047638
    23  H    4.655341   5.395012   5.126765   3.919619   2.707047
    24  H    3.909262   4.367362   4.042963   3.069969   2.175828
    25  H    6.891345   7.148355   6.318536   4.864923   4.218173
    26  H    6.934709   7.502629   6.970458   5.596069   4.622863
    27  H    8.840299   9.267719   8.538955   7.086328   6.356190
    28  H    5.893962   5.662579   4.481475   3.113430   3.227190
    29  H    5.286474   5.030822   4.030568   3.012177   3.107807
    30  H    6.439858   5.954361   4.684520   3.659445   4.090724
    31  H    6.544531   6.421275   5.359254   4.067173   3.940315
    32  H    4.605073   3.430281   2.170341   2.674220   3.940584
    33  H    4.534396   3.421352   3.911909   5.399315   6.235977
    34  H    2.596443   2.160578   3.431563   4.722325   5.079431
                    6          7          8          9         10
     6  C    0.000000
     7  C    1.552793   0.000000
     8  O    2.408994   1.415312   0.000000
     9  C    2.642489   1.546570   2.442823   0.000000
    10  C    3.232647   2.590038   3.817577   1.531875   0.000000
    11  O    4.432226   3.775678   4.833957   2.391654   1.358207
    12  O    3.198229   2.898450   4.281164   2.444677   1.226865
    13  C    1.545461   2.689779   3.197692   3.282174   3.896128
    14  C    2.654457   3.169485   3.094303   3.536968   4.541284
    15  O    2.262925   3.676863   3.999506   4.576192   5.136582
    16  C    4.639295   5.943399   5.890102   7.164022   7.803390
    17  C    5.973599   7.229092   7.087377   8.511122   9.160316
    18  Cl   7.315477   8.626840   8.480120   9.791476  10.421269
    19  C    6.456545   7.583413   7.380610   8.990448   9.652860
    20  C    5.788012   6.766675   6.568759   8.250089   8.909776
    21  H    3.326282   3.941933   3.949520   5.467618   6.091161
    22  H    1.092358   2.146964   3.318018   2.921946   2.958455
    23  H    2.143333   1.092023   2.005313   2.141174   2.780277
    24  H    2.362033   1.899280   0.950762   3.233453   4.478274
    25  H    2.928303   2.191617   2.764183   1.086901   2.139812
    26  H    3.551296   2.161607   2.631400   1.090244   2.125698
    27  H    4.988986   4.476487   5.638632   3.220439   1.897990
    28  H    2.187516   3.238945   4.009890   3.417169   3.654694
    29  H    2.889466   3.239384   2.717021   3.909191   5.115960
    30  H    3.564634   4.238302   4.162690   4.502751   5.383498
    31  H    3.031829   3.072621   3.014808   2.988019   4.069211
    32  H    4.617689   5.979862   5.990143   7.028012   7.636619
    33  H    7.534445   8.644137   8.403178  10.062284  10.726580
    34  H    6.507014   7.352392   7.116691   8.874246   9.526063
                   11         12         13         14         15
    11  O    0.000000
    12  O    2.283614   0.000000
    13  C    4.797069   4.090574   0.000000
    14  C    5.221008   5.077437   1.542308   0.000000
    15  O    6.120672   5.107105   1.414872   2.366232   0.000000
    16  C    8.901055   7.598014   4.243800   4.754075   2.871370
    17  C   10.284913   8.903970   5.648819   6.089808   4.277616
    18  Cl  11.449360  10.217144   6.710904   7.002282   5.333817
    19  C   10.866081   9.313506   6.440673   6.942911   5.143178
    20  C   10.186694   8.521108   6.093633   6.694507   4.953250
    21  H    7.425004   5.697940   4.311542   5.115893   3.821359
    22  H    4.187748   2.557028   2.132350   3.501450   2.718635
    23  H    4.058195   2.761372   3.561928   4.215944   4.360460
    24  H    5.596975   4.747136   3.193557   3.214252   3.658613
    25  H    2.563230   3.173717   3.024036   2.931740   4.415173
    26  H    2.667505   3.076338   4.267744   4.306215   5.530393
    27  H    0.945038   2.366455   5.376899   5.958537   6.629319
    28  H    4.369880   3.826726   1.090715   2.174889   2.067231
    29  H    5.905031   5.626574   2.192934   1.090094   2.637512
    30  H    5.929493   5.910998   2.177405   1.089939   2.619910
    31  H    4.547354   4.835474   2.201277   1.087216   3.335203
    32  H    8.623580   7.518876   3.876934   4.292907   2.509849
    33  H   11.944217  10.368079   7.507314   7.970580   6.194889
    34  H   10.837885   9.087347   6.979332   7.588522   5.917391
                   16         17         18         19         20
    16  C    0.000000
    17  C    1.406938   0.000000
    18  Cl   2.715911   1.724849   0.000000
    19  C    2.437308   1.406478   2.716525   0.000000
    20  C    2.813125   2.435691   4.023500   1.407265   0.000000
    21  H    3.868867   4.624077   6.328878   4.354573   3.178961
    22  H    5.042934   6.348860   7.677116   6.810103   6.126941
    23  H    6.365308   7.571511   9.078449   7.750309   6.779413
    24  H    5.166722   6.291926   7.743884   6.499977   5.656067
    25  H    7.116006   8.491467   9.632313   9.115376   8.518984
    26  H    7.998907   9.309983  10.634248   9.706452   8.889395
    27  H    9.388184  10.761189  11.913151  11.337927  10.657464
    28  H    4.909949   6.307741   7.234963   7.183601   6.907616
    29  H    4.488523   5.732194   6.731251   6.464732   6.164154
    30  H    4.745650   6.023993   6.680874   7.044304   7.012199
    31  H    5.827814   7.165631   8.084809   7.979509   7.654484
    32  H    1.080384   2.148507   2.843229   3.408156   3.893361
    33  H    3.415642   2.159854   2.864364   1.080130   2.161069
    34  H    3.893578   3.413057   4.874474   2.158122   1.080458
                   21         22         23         24         25
    21  H    0.000000
    22  H    3.648656   0.000000
    23  H    3.710482   2.382387   0.000000
    24  H    3.133090   3.321142   2.290426   0.000000
    25  H    5.986999   3.345820   3.059934   3.557535   0.000000
    26  H    6.002828   3.884492   2.472560   3.528669   1.738460
    27  H    7.904355   4.556493   4.633757   6.349765   3.454037
    28  H    5.158469   2.300197   4.065132   4.150000   3.061320
    29  H    4.685113   3.906483   4.207493   2.642496   3.461429
    30  H    5.862597   4.294822   5.277442   4.223966   3.776811
    31  H    5.795166   3.815944   4.164566   3.438936   2.161932
    32  H    4.601436   5.019423   6.549804   5.391164   6.833415
    33  H    5.300855   7.874522   8.785547   7.507316  10.187230
    34  H    3.530956   6.813895   7.232171   6.186332   9.233348
                   26         27         28         29         30
    26  H    0.000000
    27  H    3.518020   0.000000
    28  H    4.478415   4.832499   0.000000
    29  H    4.514435   6.692494   3.088275   0.000000
    30  H    5.285032   6.619066   2.516663   1.756460   0.000000
    31  H    3.638630   5.354469   2.542999   1.756970   1.749891
    32  H    7.920825   9.107418   4.406662   4.199755   4.076090
    33  H   10.763309  12.409544   8.236965   7.467164   8.024704
    34  H    9.437338  11.296913   7.811326   7.006360   7.977352
                   31         32         33         34
    31  H    0.000000
    32  H    5.376255   0.000000
    33  H    9.012436   4.297450   0.000000
    34  H    8.502617   4.973786   2.484836   0.000000
 Stoichiometry    C13H14ClNO5
 Framework group  C1[X(C13H14ClNO5)]
 Deg. of freedom    96
 Full point group                 C1      NOp   1
 Largest Abelian subgroup         C1      NOp   1
 Largest concise Abelian subgroup C1      NOp   1
                         Standard orientation:                         
 ---------------------------------------------------------------------
 Center     Atomic      Atomic             Coordinates (Angstroms)
 Number     Number       Type             X           Y           Z
 ---------------------------------------------------------------------
      1          8           0       -1.477154    2.778363   -0.013308
      2          6           0       -2.334457    1.716078   -0.064314
      3          6           0       -1.875763    0.369797   -0.132612
      4          6           0       -0.435861   -0.009616   -0.148039
      5          7           0        0.517460    0.815401    0.002344
      6          6           0        1.750659    0.094685   -0.196739
      7          6           0        2.892041    0.717582    0.652034
      8          8           0        2.428857    0.870925    1.980587
      9          6           0        4.261784    0.000160    0.620614
     10          6           0        4.931916   -0.032889   -0.756511
     11          8           0        6.058722   -0.791111   -0.745006
     12          8           0        4.509748    0.554516   -1.747434
     13          6           0        1.355697   -1.388002   -0.012101
     14          6           0        1.455256   -2.007608    1.396761
     15          8           0       -0.024911   -1.303664   -0.309879
     16          6           0       -2.824191   -0.675860   -0.188802
     17          6           0       -4.202783   -0.395174   -0.175628
     18         17           0       -5.344579   -1.686213   -0.243637
     19          6           0       -4.650142    0.936480   -0.106729
     20          6           0       -3.716891    1.988335   -0.051599
     21          1           0       -0.574331    2.467405   -0.027106
     22          1           0        2.025073    0.216288   -1.247052
     23          1           0        3.049587    1.731811    0.279161
     24          1           0        1.529218    1.166724    1.896320
     25          1           0        4.185197   -1.019416    0.989332
     26          1           0        4.944853    0.513579    1.297704
     27          1           0        6.456354   -0.783305   -1.602283
     28          1           0        1.865617   -2.021430   -0.739019
     29          1           0        0.943276   -1.398282    2.141678
     30          1           0        0.994211   -2.995119    1.411835
     31          1           0        2.484150   -2.132530    1.725108
     32          1           0       -2.501416   -1.705575   -0.241095
     33          1           0       -5.708685    1.151115   -0.096747
     34          1           0       -4.063165    3.010505   -0.000105
 ---------------------------------------------------------------------
 Rotational constants (GHZ):      0.7235974      0.1284282      0.1186225
 Standard basis: 6-31+G(d,p) (6D, 7F)
 There are   454 symmetry adapted basis functions of A   symmetry.
 Integral buffers will be    131072 words long.
 Raffenetti 2 integral format.
 Two-electron integral symmetry is turned on.
   454 basis functions,   762 primitive gaussians,   454 cartesian basis functions
    78 alpha electrons       78 beta electrons
       nuclear repulsion energy      1665.0247601013 Hartrees.
 NAtoms=   34 NActive=   34 NUniq=   34 SFac= 1.00D+00 NAtFMM=   50 NAOKFM=F Big=F
 Using the following non-standard input for PCM:
 radii=UA0
 --- end of non-standard input.
 ------------------------------------------------------------------------------
 United Atom Topological Model (UA0  parameters set).
  Nord Group  Hybr  Charge Alpha Radius          Bonded to
    1   OH    *     0.00   1.10  1.850   C2   [s]
    2   C     *     0.00   1.10  1.925   O1   [s]  C3   [s]  C20  [s]
    3   C     *     0.00   1.10  1.925   C2   [s]  C4   [s]  C16  [s]
    4   C     *     0.00   1.10  1.925   C3   [s]  N5   [d]  O15  [s]
    5   N     *     0.00   1.10  1.830   C4   [d]  C6   [s]
    6   CH    *     0.00   1.10  2.125   N5   [s]  C7   [s]  C13  [s]
    7   CH    *     0.00   1.10  2.125   C6   [s]  O8   [s]  C9   [s]
    8   OH    *     0.00   1.10  1.850   C7   [s]
    9   CH2   *     0.00   1.10  2.325   C7   [s]  C10  [s]
   10   C     *     0.00   1.10  1.925   C9   [s]  O11  [s]  O12  [d]
   11   OH    *     0.00   1.10  1.850   C10  [s]
   12   O     *     0.00   1.10  1.750   C10  [d]
   13   CH    *     0.00   1.10  2.125   C6   [s]  C14  [s]  O15  [s]
   14   CH3   *     0.00   1.10  2.525   C13  [s]
   15   O     *     0.00   1.10  1.750   C4   [s]  C13  [s]
   16   CH    *     0.00   1.10  2.125   C3   [s]  C17  [s]
   17   C     *     0.00   1.10  1.925   C16  [s] Cl18  [s]  C19  [s]
   18  Cl     *     0.00   1.10  1.973   C17  [s]
   19   CH    *     0.00   1.10  2.125   C17  [s]  C20  [s]
   20   CH    *     0.00   1.10  2.125   C2   [s]  C19  [s]
 ------------------------------------------------------------------------------
 Polarizable Continuum Model (PCM)
 =================================
 Model                : PCM.
 Atomic radii         : UA0 (Simple United Atom Topological Model).
 Polarization charges : Total charges.
 Charge compensation  : None.
 Solution method      : Matrix inversion.
 Cavity type          : Scaled VdW (van der Waals Surface) (Alpha=1.100).
 Cavity algorithm     : GePol (No added spheres)
                        Default sphere list used, NSphG=   20.
                        Lebedev-Laikov grids with approx.  5.0 points / Ang**2.
                        Smoothing algorithm: Karplus/York (Gamma=1.0000).
                        Polarization charges: spherical gaussians, with
                                              point-specific exponents (IZeta= 3).
                        Self-potential: point-specific (ISelfS= 7).
                        Self-field    : sphere-specific E.n sum rule (ISelfD= 2).
 1st derivatives      : Analytical E(r).r(x)/FMM algorithm (CHGder, D1EAlg=3).
                        Cavity 1st derivative terms included.
 Solvent              : Methanol, Eps=  32.613000 Eps(inf)=   1.765709
 ------------------------------------------------------------------------------
 Spheres list:
 ISph  on   Nord    Re0     Alpha      Xe            Ye            Ze
    1   O      1    1.850   1.100     -1.477154      2.778363     -0.013308
    2   C      2    1.925   1.100     -2.334457      1.716078     -0.064314
    3   C      3    1.925   1.100     -1.875763      0.369797     -0.132612
    4   C      4    1.925   1.100     -0.435861     -0.009616     -0.148039
    5   N      5    1.830   1.100      0.517460      0.815401      0.002344
    6   C      6    2.125   1.100      1.750659      0.094685     -0.196739
    7   C      7    2.125   1.100      2.892041      0.717582      0.652034
    8   O      8    1.850   1.100      2.428857      0.870925      1.980587
    9   C      9    2.325   1.100      4.261784      0.000160      0.620614
   10   C     10    1.925   1.100      4.931916     -0.032889     -0.756511
   11   O     11    1.850   1.100      6.058722     -0.791111     -0.745006
   12   O     12    1.750   1.100      4.509748      0.554516     -1.747434
   13   C     13    2.125   1.100      1.355697     -1.388002     -0.012101
   14   C     14    2.525   1.100      1.455256     -2.007608      1.396761
   15   O     15    1.750   1.100     -0.024911     -1.303664     -0.309879
   16   C     16    2.125   1.100     -2.824191     -0.675860     -0.188802
   17   C     17    1.925   1.100     -4.202783     -0.395174     -0.175628
   18  Cl     18    1.973   1.100     -5.344579     -1.686213     -0.243637
   19   C     19    2.125   1.100     -4.650142      0.936480     -0.106729
   20   C     20    2.125   1.100     -3.716891      1.988335     -0.051599
 ------------------------------------------------------------------------------
 One-electron integrals computed using PRISM.
 NBasis=   454 RedAO= T  NBF=   454
 NBsUse=   453 1.00D-06 NBFU=   453
 Harris functional with IExCor= 1009 diagonalized for initial guess.
 ExpMin= 4.38D-02 ExpMax= 2.52D+04 ExpMxC= 3.78D+03 IAcc=3 IRadAn=         5 AccDes= 0.00D+00
 HarFok:  IExCor= 1009 AccDes= 0.00D+00 IRadAn=         5 IDoV= 1
 ScaDFX=  1.000000  1.000000  1.000000  1.000000
 FoFCou: FMM=F IPFlag=           0 FMFlag=      100000 FMFlg1=           0
         NFxFlg=           0 DoJE=T BraDBF=F KetDBF=T FulRan=T
         Omega=  0.000000  0.000000  1.000000  0.000000  0.000000 ICntrl=     500 IOpCl=  0
         NMat0=    1 NMatS0=    1 NMatT0=    0 NMatD0=    1 NMtDS0=    0 NMtDT0=    0
         I1Cent=           4 NGrid=           0.
 Petite list used in FoFCou.
 Initial guess orbital symmetries:
       Occupied  (A) (A) (A) (A) (A) (A) (A) (A) (A) (A) (A) (A)
                 (A) (A) (A) (A) (A) (A) (A) (A) (A) (A) (A) (A)
                 (A) (A) (A) (A) (A) (A) (A) (A) (A) (A) (A) (A)
                 (A) (A) (A) (A) (A) (A) (A) (A) (A) (A) (A) (A)
                 (A) (A) (A) (A) (A) (A) (A) (A) (A) (A) (A) (A)
                 (A) (A) (A) (A) (A) (A) (A) (A) (A) (A) (A) (A)
                 (A) (A) (A) (A) (A) (A)
       Virtual   (A) (A) (A) (A) (A) (A) (A) (A) (A) (A) (A) (A)
                 (A) (A) (A) (A) (A) (A) (A) (A) (A) (A) (A) (A)
                 (A) (A) (A) (A) (A) (A) (A) (A) (A) (A) (A) (A)
                 (A) (A) (A) (A) (A) (A) (A) (A) (A) (A) (A) (A)
                 (A) (A) (A) (A) (A) (A) (A) (A) (A) (A) (A) (A)
                 (A) (A) (A) (A) (A) (A) (A) (A) (A) (A) (A) (A)
                 (A) (A) (A) (A) (A) (A) (A) (A) (A) (A) (A) (A)
                 (A) (A) (A) (A) (A) (A) (A) (A) (A) (A) (A) (A)
                 (A) (A) (A) (A) (A) (A) (A) (A) (A) (A) (A) (A)
                 (A) (A) (A) (A) (A) (A) (A) (A) (A) (A) (A) (A)
                 (A) (A) (A) (A) (A) (A) (A) (A) (A) (A) (A) (A)
                 (A) (A) (A) (A) (A) (A) (A) (A) (A) (A) (A) (A)
                 (A) (A) (A) (A) (A) (A) (A) (A) (A) (A) (A) (A)
                 (A) (A) (A) (A) (A) (A) (A) (A) (A) (A) (A) (A)
                 (A) (A) (A) (A) (A) (A) (A) (A) (A) (A) (A) (A)
                 (A) (A) (A) (A) (A) (A) (A) (A) (A) (A) (A) (A)
                 (A) (A) (A) (A) (A) (A) (A) (A) (A) (A) (A) (A)
                 (A) (A) (A) (A) (A) (A) (A) (A) (A) (A) (A) (A)
                 (A) (A) (A) (A) (A) (A) (A) (A) (A) (A) (A) (A)
                 (A) (A) (A) (A) (A) (A) (A) (A) (A) (A) (A) (A)
                 (A) (A) (A) (A) (A) (A) (A) (A) (A) (A) (A) (A)
                 (A) (A) (A) (A) (A) (A) (A) (A) (A) (A) (A) (A)
                 (A) (A) (A) (A) (A) (A) (A) (A) (A) (A) (A) (A)
                 (A) (A) (A) (A) (A) (A) (A) (A) (A) (A) (A) (A)
                 (A) (A) (A) (A) (A) (A) (A) (A) (A) (A) (A) (A)
                 (A) (A) (A) (A) (A) (A) (A) (A) (A) (A) (A) (A)
                 (A) (A) (A) (A) (A) (A) (A) (A) (A) (A) (A) (A)
                 (A) (A) (A) (A) (A) (A) (A) (A) (A) (A) (A) (A)
                 (A) (A) (A) (A) (A) (A) (A) (A) (A) (A) (A) (A)
                 (A) (A) (A) (A) (A) (A) (A) (A) (A) (A) (A) (A)
                 (A) (A) (A) (A) (A) (A) (A) (A) (A) (A) (A) (A)
                 (A) (A) (A)
 The electronic state of the initial guess is 1-A.
 Requested convergence on RMS density matrix=1.00D-08 within 128 cycles.
 Requested convergence on MAX density matrix=1.00D-06.
 Requested convergence on             energy=1.00D-06.
 No special actions if energy rises.
 Error on total polarization charges =  0.01510
 SCF Done:  E(RM062X) =  -1394.55865931     A.U. after   16 cycles
             Convg  =    0.3978D-08             -V/T =  2.0067

 **********************************************************************

            Population analysis using the SCF density.

 **********************************************************************

 Orbital symmetries:
       Occupied  (A) (A) (A) (A) (A) (A) (A) (A) (A) (A) (A) (A)
                 (A) (A) (A) (A) (A) (A) (A) (A) (A) (A) (A) (A)
                 (A) (A) (A) (A) (A) (A) (A) (A) (A) (A) (A) (A)
                 (A) (A) (A) (A) (A) (A) (A) (A) (A) (A) (A) (A)
                 (A) (A) (A) (A) (A) (A) (A) (A) (A) (A) (A) (A)
                 (A) (A) (A) (A) (A) (A) (A) (A) (A) (A) (A) (A)
                 (A) (A) (A) (A) (A) (A)
       Virtual   (A) (A) (A) (A) (A) (A) (A) (A) (A) (A) (A) (A)
                 (A) (A) (A) (A) (A) (A) (A) (A) (A) (A) (A) (A)
                 (A) (A) (A) (A) (A) (A) (A) (A) (A) (A) (A) (A)
                 (A) (A) (A) (A) (A) (A) (A) (A) (A) (A) (A) (A)
                 (A) (A) (A) (A) (A) (A) (A) (A) (A) (A) (A) (A)
                 (A) (A) (A) (A) (A) (A) (A) (A) (A) (A) (A) (A)
                 (A) (A) (A) (A) (A) (A) (A) (A) (A) (A) (A) (A)
                 (A) (A) (A) (A) (A) (A) (A) (A) (A) (A) (A) (A)
                 (A) (A) (A) (A) (A) (A) (A) (A) (A) (A) (A) (A)
                 (A) (A) (A) (A) (A) (A) (A) (A) (A) (A) (A) (A)
                 (A) (A) (A) (A) (A) (A) (A) (A) (A) (A) (A) (A)
                 (A) (A) (A) (A) (A) (A) (A) (A) (A) (A) (A) (A)
                 (A) (A) (A) (A) (A) (A) (A) (A) (A) (A) (A) (A)
                 (A) (A) (A) (A) (A) (A) (A) (A) (A) (A) (A) (A)
                 (A) (A) (A) (A) (A) (A) (A) (A) (A) (A) (A) (A)
                 (A) (A) (A) (A) (A) (A) (A) (A) (A) (A) (A) (A)
                 (A) (A) (A) (A) (A) (A) (A) (A) (A) (A) (A) (A)
                 (A) (A) (A) (A) (A) (A) (A) (A) (A) (A) (A) (A)
                 (A) (A) (A) (A) (A) (A) (A) (A) (A) (A) (A) (A)
                 (A) (A) (A) (A) (A) (A) (A) (A) (A) (A) (A) (A)
                 (A) (A) (A) (A) (A) (A) (A) (A) (A) (A) (A) (A)
                 (A) (A) (A) (A) (A) (A) (A) (A) (A) (A) (A) (A)
                 (A) (A) (A) (A) (A) (A) (A) (A) (A) (A) (A) (A)
                 (A) (A) (A) (A) (A) (A) (A) (A) (A) (A) (A) (A)
                 (A) (A) (A) (A) (A) (A) (A) (A) (A) (A) (A) (A)
                 (A) (A) (A) (A) (A) (A) (A) (A) (A) (A) (A) (A)
                 (A) (A) (A) (A) (A) (A) (A) (A) (A) (A) (A) (A)
                 (A) (A) (A) (A) (A) (A) (A) (A) (A) (A) (A) (A)
                 (A) (A) (A) (A) (A) (A) (A) (A) (A) (A) (A) (A)
                 (A) (A) (A) (A) (A) (A) (A) (A) (A) (A) (A) (A)
                 (A) (A) (A) (A) (A) (A) (A) (A) (A) (A) (A) (A)
                 (A) (A) (A)
 The electronic state is 1-A.
 Alpha  occ. eigenvalues -- -102.68289 -19.70362 -19.69933 -19.68295 -19.66144
 Alpha  occ. eigenvalues --  -19.65018 -14.77376 -10.71525 -10.67773 -10.64982
 Alpha  occ. eigenvalues --  -10.62686 -10.62340 -10.61973 -10.60016 -10.59359
 Alpha  occ. eigenvalues --  -10.58892 -10.58664 -10.57961 -10.57623 -10.54537
 Alpha  occ. eigenvalues --   -9.82971  -7.55373  -7.54712  -7.54702  -1.24492
 Alpha  occ. eigenvalues --   -1.24433  -1.19747  -1.16330  -1.15419  -1.04444
 Alpha  occ. eigenvalues --   -1.00922  -0.95410  -0.91929  -0.89021  -0.86601
 Alpha  occ. eigenvalues --   -0.83618  -0.81404  -0.76934  -0.73671  -0.72319
 Alpha  occ. eigenvalues --   -0.69977  -0.68037  -0.66663  -0.63607  -0.61916
 Alpha  occ. eigenvalues --   -0.60260  -0.59528  -0.58614  -0.57960  -0.56755
 Alpha  occ. eigenvalues --   -0.55472  -0.54871  -0.53882  -0.52766  -0.52470
 Alpha  occ. eigenvalues --   -0.51286  -0.50275  -0.49056  -0.48063  -0.47878
 Alpha  occ. eigenvalues --   -0.47221  -0.46499  -0.46242  -0.45719  -0.45116
 Alpha  occ. eigenvalues --   -0.44307  -0.43741  -0.42140  -0.41237  -0.40881
 Alpha  occ. eigenvalues --   -0.39089  -0.38904  -0.37813  -0.37381  -0.34732
 Alpha  occ. eigenvalues --   -0.34395  -0.31840  -0.28717
 Alpha virt. eigenvalues --   -0.03363   0.00487   0.00707   0.01555   0.02048
 Alpha virt. eigenvalues --    0.02370   0.02718   0.03261   0.03384   0.04444
 Alpha virt. eigenvalues --    0.04697   0.04905   0.05192   0.05325   0.06286
 Alpha virt. eigenvalues --    0.06532   0.06684   0.07280   0.07521   0.08007
 Alpha virt. eigenvalues --    0.08642   0.09072   0.09385   0.10098   0.10231
 Alpha virt. eigenvalues --    0.10289   0.10664   0.11164   0.12218   0.12379
 Alpha virt. eigenvalues --    0.12674   0.13138   0.13811   0.14030   0.14579
 Alpha virt. eigenvalues --    0.14892   0.15094   0.15218   0.15961   0.16490
 Alpha virt. eigenvalues --    0.16705   0.17143   0.17463   0.18015   0.18293
 Alpha virt. eigenvalues --    0.18812   0.19198   0.19667   0.19979   0.20213
 Alpha virt. eigenvalues --    0.20434   0.20780   0.20999   0.21451   0.21759
 Alpha virt. eigenvalues --    0.22383   0.22914   0.23041   0.23393   0.23697
 Alpha virt. eigenvalues --    0.24433   0.25009   0.25015   0.25295   0.25835
 Alpha virt. eigenvalues --    0.26281   0.26506   0.26572   0.26828   0.27022
 Alpha virt. eigenvalues --    0.27741   0.28323   0.28487   0.28655   0.29365
 Alpha virt. eigenvalues --    0.29758   0.30296   0.30441   0.30987   0.31528
 Alpha virt. eigenvalues --    0.31630   0.31667   0.32286   0.32680   0.32795
 Alpha virt. eigenvalues --    0.33454   0.33891   0.34714   0.34979   0.35260
 Alpha virt. eigenvalues --    0.35896   0.36566   0.36955   0.37270   0.38042
 Alpha virt. eigenvalues --    0.39212   0.40042   0.40331   0.40853   0.41083
 Alpha virt. eigenvalues --    0.41288   0.42011   0.42573   0.42617   0.43480
 Alpha virt. eigenvalues --    0.43779   0.44690   0.46372   0.46702   0.47775
 Alpha virt. eigenvalues --    0.48381   0.49692   0.50373   0.51536   0.53289
 Alpha virt. eigenvalues --    0.55138   0.56572   0.59531   0.60534   0.64457
 Alpha virt. eigenvalues --    0.67939   0.68683   0.69802   0.70294   0.70628
 Alpha virt. eigenvalues --    0.71040   0.72430   0.72887   0.74564   0.74918
 Alpha virt. eigenvalues --    0.75298   0.75448   0.76884   0.77509   0.77884
 Alpha virt. eigenvalues --    0.78214   0.79268   0.79759   0.80655   0.81528
 Alpha virt. eigenvalues --    0.82474   0.83582   0.84389   0.86041   0.86578
 Alpha virt. eigenvalues --    0.87410   0.88054   0.90326   0.91001   0.91583
 Alpha virt. eigenvalues --    0.92935   0.93746   0.94884   0.95940   0.97667
 Alpha virt. eigenvalues --    0.98397   0.99164   1.00747   1.01124   1.02297
 Alpha virt. eigenvalues --    1.02954   1.04314   1.06045   1.06368   1.06840
 Alpha virt. eigenvalues --    1.07715   1.08620   1.09644   1.10863   1.11184
 Alpha virt. eigenvalues --    1.11927   1.14108   1.15486   1.16167   1.17323
 Alpha virt. eigenvalues --    1.17407   1.18293   1.19809   1.19934   1.21151
 Alpha virt. eigenvalues --    1.21504   1.23529   1.24439   1.25619   1.26419
 Alpha virt. eigenvalues --    1.26761   1.27398   1.28616   1.29105   1.30642
 Alpha virt. eigenvalues --    1.31388   1.32679   1.33766   1.34588   1.35722
 Alpha virt. eigenvalues --    1.36390   1.37454   1.39155   1.39598   1.39946
 Alpha virt. eigenvalues --    1.40406   1.40481   1.41388   1.42124   1.43528
 Alpha virt. eigenvalues --    1.43693   1.43832   1.44436   1.44655   1.46473
 Alpha virt. eigenvalues --    1.47316   1.47828   1.50236   1.51234   1.52145
 Alpha virt. eigenvalues --    1.54978   1.56811   1.57569   1.59258   1.61302
 Alpha virt. eigenvalues --    1.62428   1.63562   1.64738   1.65987   1.66176
 Alpha virt. eigenvalues --    1.66410   1.67992   1.71366   1.72575   1.74736
 Alpha virt. eigenvalues --    1.75950   1.76536   1.78022   1.79388   1.80576
 Alpha virt. eigenvalues --    1.81375   1.83481   1.84737   1.85456   1.86374
 Alpha virt. eigenvalues --    1.87635   1.89722   1.90127   1.92850   1.94019
 Alpha virt. eigenvalues --    1.94832   1.95399   1.96227   1.97331   1.97778
 Alpha virt. eigenvalues --    1.98635   1.99435   2.00403   2.02127   2.02444
 Alpha virt. eigenvalues --    2.03359   2.05349   2.06917   2.08484   2.08670
 Alpha virt. eigenvalues --    2.09417   2.11047   2.11228   2.13293   2.14444
 Alpha virt. eigenvalues --    2.17242   2.18896   2.20313   2.21344   2.21704
 Alpha virt. eigenvalues --    2.24096   2.24411   2.26076   2.26187   2.28134
 Alpha virt. eigenvalues --    2.28894   2.30293   2.33278   2.37128   2.37553
 Alpha virt. eigenvalues --    2.39604   2.41038   2.42070   2.42888   2.44842
 Alpha virt. eigenvalues --    2.44938   2.46046   2.46865   2.47330   2.48007
 Alpha virt. eigenvalues --    2.50060   2.50844   2.52021   2.52892   2.54377
 Alpha virt. eigenvalues --    2.54831   2.57595   2.57757   2.59000   2.60038
 Alpha virt. eigenvalues --    2.60747   2.62018   2.63046   2.65920   2.67551
 Alpha virt. eigenvalues --    2.68007   2.68615   2.69261   2.69960   2.71181
 Alpha virt. eigenvalues --    2.72716   2.73672   2.74660   2.75858   2.75953
 Alpha virt. eigenvalues --    2.78083   2.78961   2.79900   2.80784   2.82388
 Alpha virt. eigenvalues --    2.84001   2.86820   2.88084   2.89003   2.91567
 Alpha virt. eigenvalues --    2.92859   2.98820   3.00466   3.02338   3.03115
 Alpha virt. eigenvalues --    3.03990   3.05133   3.05947   3.08097   3.11634
 Alpha virt. eigenvalues --    3.14484   3.16183   3.20751   3.25018   3.25582
 Alpha virt. eigenvalues --    3.27848   3.32584   3.35729   3.38942   3.41010
 Alpha virt. eigenvalues --    3.42450   3.46888   3.47775   3.50347   3.52128
 Alpha virt. eigenvalues --    3.53101   3.56172   3.64219   3.67810   3.76497
 Alpha virt. eigenvalues --    4.25294   4.27804   4.29924   4.31996   4.35658
 Alpha virt. eigenvalues --    4.35920   4.40829   4.43925   4.46352   4.47157
 Alpha virt. eigenvalues --    4.50341   4.52584   4.57810   4.62152   4.65959
 Alpha virt. eigenvalues --    4.70432   4.75819   4.78091   4.88917   4.95430
          Condensed to atoms (all electrons):
              1          2          3          4          5          6
     1  O    8.429425   0.423030   0.111679  -0.064902  -0.001170  -0.015275
     2  C    0.423030  15.140821  -3.873387   1.133723  -0.094696  -0.585030
     3  C    0.111679  -3.873387  13.376462  -1.832621  -0.375952   0.844493
     4  C   -0.064902   1.133723  -1.832621  11.763397   0.853972  -5.378060
     5  N   -0.001170  -0.094696  -0.375952   0.853972   7.577760  -1.145374
     6  C   -0.015275  -0.585030   0.844493  -5.378060  -1.145374  18.479779
     7  C   -0.004113  -0.022193  -0.077907  -0.221393  -0.184468  -1.023237
     8  O    0.000667   0.023382  -0.043910   0.134777   0.043845  -0.267270
     9  C   -0.000255  -0.010497  -0.028221   0.453257   0.260855  -0.924357
    10  C    0.000062  -0.012893   0.022681  -0.287401  -0.045242   0.261214
    11  O    0.000000   0.000099  -0.000140   0.001035  -0.000313  -0.011590
    12  O    0.000018   0.001079   0.000036   0.023878   0.002177   0.042024
    13  C    0.006065   0.120229  -0.215423  -0.433020   0.495953  -2.996384
    14  C   -0.001008   0.033584   0.016488  -0.086711   0.002428   0.244728
    15  O   -0.003546  -0.016458  -0.227684   0.389639  -0.148591  -0.127955
    16  C    0.138496  -3.799844   1.557793  -2.475109   0.052714  -0.835850
    17  C   -0.030250  -0.367933  -1.658960   0.835236   0.082626   0.139715
    18  Cl  -0.000403  -0.003090  -0.005903   0.012330   0.000222   0.004770
    19  C    0.052914   0.329939  -0.310308   0.218683  -0.012699  -0.127219
    20  C   -0.682301  -2.154654  -1.254104  -0.075664  -0.000983  -0.125711
    21  H    0.194007   0.078379  -0.168275   0.025855   0.054582   0.013155
    22  H    0.000144   0.015962  -0.029674   0.123732   0.022011   0.115361
    23  H    0.000042   0.004324  -0.003871  -0.057549  -0.014538   0.067030
    24  H   -0.000520  -0.000512  -0.018906   0.107155   0.031594  -0.200547
    25  H    0.000000   0.000104   0.000322  -0.010223  -0.002891  -0.031060
    26  H    0.000000  -0.000093   0.000228  -0.002672  -0.000952   0.026740
    27  H    0.000000   0.000002  -0.000004   0.000195   0.000006   0.001474
    28  H    0.000005  -0.002481   0.007140   0.087363   0.011030  -0.108010
    29  H    0.000026  -0.002540   0.001921   0.018319   0.019759  -0.085577
    30  H   -0.000002   0.002183   0.007448   0.008953  -0.003609   0.068389
    31  H   -0.000003  -0.000806   0.000294  -0.000215  -0.015738   0.046180
    32  H   -0.000484   0.034650   0.012895   0.051462   0.000090   0.001901
    33  H   -0.000413  -0.055483   0.006057  -0.009661   0.000048  -0.000091
    34  H   -0.003527   0.025081   0.012774  -0.001984   0.000445   0.000364
              7          8          9         10         11         12
     1  O   -0.004113   0.000667  -0.000255   0.000062   0.000000   0.000018
     2  C   -0.022193   0.023382  -0.010497  -0.012893   0.000099   0.001079
     3  C   -0.077907  -0.043910  -0.028221   0.022681  -0.000140   0.000036
     4  C   -0.221393   0.134777   0.453257  -0.287401   0.001035   0.023878
     5  N   -0.184468   0.043845   0.260855  -0.045242  -0.000313   0.002177
     6  C   -1.023237  -0.267270  -0.924357   0.261214  -0.011590   0.042024
     7  C    7.762950   0.187511  -0.836387  -0.000764   0.051736   0.032578
     8  O    0.187511   8.257053  -0.101351   0.037429  -0.000562   0.000601
     9  C   -0.836387  -0.101351   7.384310  -0.310281  -0.199096  -0.191101
    10  C   -0.000764   0.037429  -0.310281   5.134992   0.235403   0.484787
    11  O    0.051736  -0.000562  -0.199096   0.235403   8.280214  -0.130218
    12  O    0.032578   0.000601  -0.191101   0.484787  -0.130218   8.190267
    13  C    0.293125   0.055364   0.030372   0.072673   0.009830  -0.003925
    14  C   -0.299623   0.024364  -0.027757   0.008025  -0.001468   0.003723
    15  O    0.048595  -0.009007   0.011166  -0.009105   0.000021  -0.000427
    16  C    0.011576  -0.002082   0.039098  -0.003318  -0.000041  -0.000912
    17  C    0.023275  -0.002085   0.002852  -0.000130  -0.000002  -0.000045
    18  Cl  -0.000037  -0.000005   0.000021   0.000004   0.000000   0.000000
    19  C    0.000312   0.000665   0.001180  -0.000433   0.000000  -0.000007
    20  C   -0.024049   0.001211  -0.000770  -0.000323   0.000006   0.000121
    21  H   -0.008155  -0.000525  -0.000378   0.000101   0.000000   0.000003
    22  H   -0.060796   0.008628   0.025145  -0.021718   0.000198   0.001209
    23  H    0.357213  -0.058990  -0.076323   0.014053  -0.000448   0.005316
    24  H    0.041454   0.253323   0.020331  -0.007851   0.000012  -0.000032
    25  H    0.043858   0.001915   0.326673  -0.029659   0.000110   0.005760
    26  H   -0.030650  -0.000007   0.357848  -0.004706   0.001565   0.001337
    27  H   -0.005493   0.000002   0.033080  -0.014702   0.248123   0.004652
    28  H   -0.024864  -0.000263   0.020428  -0.003563  -0.000023  -0.000637
    29  H   -0.036878  -0.004456   0.018958  -0.000172  -0.000003  -0.000005
    30  H   -0.013916   0.000633   0.004842  -0.000279   0.000004  -0.000010
    31  H    0.064893  -0.005470  -0.046317   0.000854  -0.000013  -0.000069
    32  H   -0.000137   0.000002  -0.000044  -0.000008   0.000000   0.000000
    33  H   -0.000003   0.000000   0.000000   0.000000   0.000000   0.000000
    34  H   -0.000020   0.000000   0.000000   0.000000   0.000000   0.000000
             13         14         15         16         17         18
     1  O    0.006065  -0.001008  -0.003546   0.138496  -0.030250  -0.000403
     2  C    0.120229   0.033584  -0.016458  -3.799844  -0.367933  -0.003090
     3  C   -0.215423   0.016488  -0.227684   1.557793  -1.658960  -0.005903
     4  C   -0.433020  -0.086711   0.389639  -2.475109   0.835236   0.012330
     5  N    0.495953   0.002428  -0.148591   0.052714   0.082626   0.000222
     6  C   -2.996384   0.244728  -0.127955  -0.835850   0.139715   0.004770
     7  C    0.293125  -0.299623   0.048595   0.011576   0.023275  -0.000037
     8  O    0.055364   0.024364  -0.009007  -0.002082  -0.002085  -0.000005
     9  C    0.030372  -0.027757   0.011166   0.039098   0.002852   0.000021
    10  C    0.072673   0.008025  -0.009105  -0.003318  -0.000130   0.000004
    11  O    0.009830  -0.001468   0.000021  -0.000041  -0.000002   0.000000
    12  O   -0.003925   0.003723  -0.000427  -0.000912  -0.000045   0.000000
    13  C    8.581025  -0.171055  -0.077474  -0.012911  -0.050260  -0.001889
    14  C   -0.171055   5.621121  -0.126274  -0.029124  -0.003295   0.000094
    15  O   -0.077474  -0.126274   8.566359  -0.045200   0.107275  -0.000533
    16  C   -0.012911  -0.029124  -0.045200  18.311652  -3.437693  -0.138586
    17  C   -0.050260  -0.003295   0.107275  -3.437693   9.236612  -0.101713
    18  Cl  -0.001889   0.000094  -0.000533  -0.138586  -0.101713  17.030567
    19  C    0.014146   0.002709   0.003138  -1.982211   0.974499  -0.106489
    20  C    0.034870  -0.000284   0.005458  -1.115570   0.278866   0.085010
    21  H   -0.006207   0.000774   0.001899  -0.042529   0.003803  -0.000006
    22  H    0.065119   0.008985   0.003081   0.004708  -0.000462   0.000000
    23  H    0.039795  -0.005873  -0.002845  -0.003073  -0.000127   0.000000
    24  H    0.009732   0.004836   0.002316   0.008829   0.000260   0.000002
    25  H    0.048473  -0.028564  -0.000501  -0.000430  -0.000016   0.000000
    26  H   -0.011210   0.004883   0.000053   0.000030   0.000003   0.000000
    27  H   -0.000432  -0.000046   0.000000   0.000000   0.000000   0.000000
    28  H    0.376981  -0.040211  -0.037127   0.013211  -0.001202   0.000008
    29  H   -0.027556   0.426493   0.004449   0.022060  -0.000779   0.000035
    30  H   -0.126998   0.429572   0.000300  -0.013303  -0.000472  -0.000006
    31  H   -0.072208   0.368938   0.011475  -0.000273   0.000123  -0.000002
    32  H   -0.001453   0.000814   0.004578   0.205804  -0.011873  -0.003010
    33  H   -0.000031  -0.000005   0.000006   0.135134   0.087094  -0.008168
    34  H   -0.000039   0.000004   0.000013   0.005571  -0.002930   0.000899
             19         20         21         22         23         24
     1  O    0.052914  -0.682301   0.194007   0.000144   0.000042  -0.000520
     2  C    0.329939  -2.154654   0.078379   0.015962   0.004324  -0.000512
     3  C   -0.310308  -1.254104  -0.168275  -0.029674  -0.003871  -0.018906
     4  C    0.218683  -0.075664   0.025855   0.123732  -0.057549   0.107155
     5  N   -0.012699  -0.000983   0.054582   0.022011  -0.014538   0.031594
     6  C   -0.127219  -0.125711   0.013155   0.115361   0.067030  -0.200547
     7  C    0.000312  -0.024049  -0.008155  -0.060796   0.357213   0.041454
     8  O    0.000665   0.001211  -0.000525   0.008628  -0.058990   0.253323
     9  C    0.001180  -0.000770  -0.000378   0.025145  -0.076323   0.020331
    10  C   -0.000433  -0.000323   0.000101  -0.021718   0.014053  -0.007851
    11  O    0.000000   0.000006   0.000000   0.000198  -0.000448   0.000012
    12  O   -0.000007   0.000121   0.000003   0.001209   0.005316  -0.000032
    13  C    0.014146   0.034870  -0.006207   0.065119   0.039795   0.009732
    14  C    0.002709  -0.000284   0.000774   0.008985  -0.005873   0.004836
    15  O    0.003138   0.005458   0.001899   0.003081  -0.002845   0.002316
    16  C   -1.982211  -1.115570  -0.042529   0.004708  -0.003073   0.008829
    17  C    0.974499   0.278866   0.003803  -0.000462  -0.000127   0.000260
    18  Cl  -0.106489   0.085010  -0.000006   0.000000   0.000000   0.000002
    19  C    7.224125  -0.081178  -0.004708   0.000311   0.000002   0.000375
    20  C   -0.081178  10.366500   0.114902   0.002429   0.000776  -0.000808
    21  H   -0.004708   0.114902   0.296971  -0.000057   0.000042   0.000230
    22  H    0.000311   0.002429  -0.000057   0.512946  -0.004254   0.000078
    23  H    0.000002   0.000776   0.000042  -0.004254   0.579794  -0.005027
    24  H    0.000375  -0.000808   0.000230   0.000078  -0.005027   0.328922
    25  H   -0.000002   0.000011   0.000000   0.000171   0.004103  -0.000138
    26  H    0.000000  -0.000004   0.000000  -0.000093  -0.005462  -0.000017
    27  H    0.000000   0.000000   0.000000   0.000001   0.000005   0.000000
    28  H    0.000054   0.000064  -0.000001  -0.006924  -0.000141   0.000011
    29  H    0.000114   0.001479   0.000004  -0.000054  -0.000081  -0.000235
    30  H   -0.000063   0.000022   0.000000  -0.000096   0.000003   0.000000
    31  H    0.000005  -0.000152   0.000000  -0.000044  -0.000034   0.000224
    32  H    0.038770  -0.010058  -0.000006   0.000000   0.000000   0.000000
    33  H    0.185448  -0.010178   0.000002   0.000000   0.000000   0.000000
    34  H   -0.007690   0.299699   0.000070   0.000000   0.000000   0.000000
             25         26         27         28         29         30
     1  O    0.000000   0.000000   0.000000   0.000005   0.000026  -0.000002
     2  C    0.000104  -0.000093   0.000002  -0.002481  -0.002540   0.002183
     3  C    0.000322   0.000228  -0.000004   0.007140   0.001921   0.007448
     4  C   -0.010223  -0.002672   0.000195   0.087363   0.018319   0.008953
     5  N   -0.002891  -0.000952   0.000006   0.011030   0.019759  -0.003609
     6  C   -0.031060   0.026740   0.001474  -0.108010  -0.085577   0.068389
     7  C    0.043858  -0.030650  -0.005493  -0.024864  -0.036878  -0.013916
     8  O    0.001915  -0.000007   0.000002  -0.000263  -0.004456   0.000633
     9  C    0.326673   0.357848   0.033080   0.020428   0.018958   0.004842
    10  C   -0.029659  -0.004706  -0.014702  -0.003563  -0.000172  -0.000279
    11  O    0.000110   0.001565   0.248123  -0.000023  -0.000003   0.000004
    12  O    0.005760   0.001337   0.004652  -0.000637  -0.000005  -0.000010
    13  C    0.048473  -0.011210  -0.000432   0.376981  -0.027556  -0.126998
    14  C   -0.028564   0.004883  -0.000046  -0.040211   0.426493   0.429572
    15  O   -0.000501   0.000053   0.000000  -0.037127   0.004449   0.000300
    16  C   -0.000430   0.000030   0.000000   0.013211   0.022060  -0.013303
    17  C   -0.000016   0.000003   0.000000  -0.001202  -0.000779  -0.000472
    18  Cl   0.000000   0.000000   0.000000   0.000008   0.000035  -0.000006
    19  C   -0.000002   0.000000   0.000000   0.000054   0.000114  -0.000063
    20  C    0.000011  -0.000004   0.000000   0.000064   0.001479   0.000022
    21  H    0.000000   0.000000   0.000000  -0.000001   0.000004   0.000000
    22  H    0.000171  -0.000093   0.000001  -0.006924  -0.000054  -0.000096
    23  H    0.004103  -0.005462   0.000005  -0.000141  -0.000081   0.000003
    24  H   -0.000138  -0.000017   0.000000   0.000011  -0.000235   0.000000
    25  H    0.493910  -0.021530  -0.000105  -0.000872  -0.000178   0.000029
    26  H   -0.021530   0.457804  -0.000182   0.000012   0.000000  -0.000001
    27  H   -0.000105  -0.000182   0.300441   0.000001   0.000000   0.000000
    28  H   -0.000872   0.000012   0.000001   0.514680   0.003825  -0.003444
    29  H   -0.000178   0.000000   0.000000   0.003825   0.507559  -0.028211
    30  H    0.000029  -0.000001   0.000000  -0.003444  -0.028211   0.518481
    31  H    0.002311   0.000064   0.000000  -0.000740  -0.023026  -0.025354
    32  H    0.000000   0.000000   0.000000   0.000003   0.000006  -0.000010
    33  H    0.000000   0.000000   0.000000   0.000000   0.000000   0.000000
    34  H    0.000000   0.000000   0.000000   0.000000   0.000000   0.000000
             31         32         33         34
     1  O   -0.000003  -0.000484  -0.000413  -0.003527
     2  C   -0.000806   0.034650  -0.055483   0.025081
     3  C    0.000294   0.012895   0.006057   0.012774
     4  C   -0.000215   0.051462  -0.009661  -0.001984
     5  N   -0.015738   0.000090   0.000048   0.000445
     6  C    0.046180   0.001901  -0.000091   0.000364
     7  C    0.064893  -0.000137  -0.000003  -0.000020
     8  O   -0.005470   0.000002   0.000000   0.000000
     9  C   -0.046317  -0.000044   0.000000   0.000000
    10  C    0.000854  -0.000008   0.000000   0.000000
    11  O   -0.000013   0.000000   0.000000   0.000000
    12  O   -0.000069   0.000000   0.000000   0.000000
    13  C   -0.072208  -0.001453  -0.000031  -0.000039
    14  C    0.368938   0.000814  -0.000005   0.000004
    15  O    0.011475   0.004578   0.000006   0.000013
    16  C   -0.000273   0.205804   0.135134   0.005571
    17  C    0.000123  -0.011873   0.087094  -0.002930
    18  Cl  -0.000002  -0.003010  -0.008168   0.000899
    19  C    0.000005   0.038770   0.185448  -0.007690
    20  C   -0.000152  -0.010058  -0.010178   0.299699
    21  H    0.000000  -0.000006   0.000002   0.000070
    22  H   -0.000044   0.000000   0.000000   0.000000
    23  H   -0.000034   0.000000   0.000000   0.000000
    24  H    0.000224   0.000000   0.000000   0.000000
    25  H    0.002311   0.000000   0.000000   0.000000
    26  H    0.000064   0.000000   0.000000   0.000000
    27  H    0.000000   0.000000   0.000000   0.000000
    28  H   -0.000740   0.000003   0.000000   0.000000
    29  H   -0.023026   0.000006   0.000000   0.000000
    30  H   -0.025354  -0.000010   0.000000   0.000000
    31  H    0.531122   0.000000   0.000000   0.000000
    32  H    0.000000   0.461638  -0.000128   0.000008
    33  H    0.000000  -0.000128   0.466955  -0.003651
    34  H    0.000000   0.000008  -0.003651   0.469732
 Mulliken atomic charges:
              1
     1  O   -0.548407
     2  C   -0.363980
     3  C    0.146537
     4  C    0.694224
     5  N   -0.464901
     6  C   -0.368719
     7  C   -0.043993
     8  O   -0.535387
     9  C   -0.237280
    10  C    0.480271
    11  O   -0.484440
    12  O   -0.472177
    13  C   -0.045274
    14  C   -0.381266
    15  O   -0.327095
    16  C   -0.568614
    17  C   -0.102011
    18  Cl   0.235878
    19  C   -0.414385
    20  C    0.345365
    21  H    0.446069
    22  H    0.213955
    23  H    0.166140
    24  H    0.424907
    25  H    0.198422
    26  H    0.227014
    27  H    0.432982
    28  H    0.195689
    29  H    0.184742
    30  H    0.174916
    31  H    0.163981
    32  H    0.214590
    33  H    0.207066
    34  H    0.205180
 Sum of Mulliken atomic charges =   0.00000
 Mulliken charges with hydrogens summed into heavy atoms:
              1
     1  O   -0.102338
     2  C   -0.363980
     3  C    0.146537
     4  C    0.694224
     5  N   -0.464901
     6  C   -0.154763
     7  C    0.122147
     8  O   -0.110481
     9  C    0.188155
    10  C    0.480271
    11  O   -0.051458
    12  O   -0.472177
    13  C    0.150415
    14  C    0.142373
    15  O   -0.327095
    16  C   -0.354024
    17  C   -0.102011
    18  Cl   0.235878
    19  C   -0.207318
    20  C    0.550545
 Sum of Mulliken charges with hydrogens summed into heavy atoms =   0.00000
 Electronic spatial extent (au):  <R**2>=           8572.5662
 Charge=              0.0000 electrons
 Dipole moment (field-independent basis, Debye):
    X=              2.8559    Y=             -2.0655    Z=             -0.2494  Tot=              3.5333
 Quadrupole moment (field-independent basis, Debye-Ang):
   XX=           -106.9950   YY=           -126.1527   ZZ=           -131.8472
   XY=            -14.9528   XZ=             -6.0495   YZ=              2.1684
 Traceless Quadrupole moment (field-independent basis, Debye-Ang):
   XX=             14.6700   YY=             -4.4878   ZZ=            -10.1822
   XY=            -14.9528   XZ=             -6.0495   YZ=              2.1684
 Octapole moment (field-independent basis, Debye-Ang**2):
  XXX=            157.8709  YYY=            -20.9908  ZZZ=            -10.4818  XYY=             15.6755
  XXY=             16.8577  XXZ=            -41.7462  XZZ=             11.8101  YZZ=            -15.1293
  YYZ=              1.6102  XYZ=             16.4529
 Hexadecapole moment (field-independent basis, Debye-Ang**3):
 XXXX=          -8037.5665 YYYY=          -1426.4538 ZZZZ=           -636.1184 XXXY=           -385.9416
 XXXZ=           -393.5497 YYYX=             12.5719 YYYZ=              9.5366 ZZZX=            -72.2679
 ZZZY=             17.0841 XXYY=          -1709.9202 XXZZ=          -1635.6682 YYZZ=           -339.9751
 XXYZ=            104.1266 YYXZ=            -12.8632 ZZXY=            -50.3257
 N-N= 1.665024760101D+03 E-N=-6.602311687082D+03  KE= 1.385273146904D+03
 D1PCM: PCM CHGder 1st derivatives, ID1Alg=3 FixD1E=F DoIter=F DoCFld=F I1PDM=0.
 Calling FoFJK, ICntrl=      2127 FMM=F ISym2X=0 I1Cent= 0 IOpClX= 0 NMat=1 NMatS=1 NMatT=0.
 ***** Axes restored to original set *****
 -------------------------------------------------------------------
 Center     Atomic                   Forces (Hartrees/Bohr)
 Number     Number              X              Y              Z
 -------------------------------------------------------------------
      1        8          -0.028413730    0.010701404    0.010874335
      2        6           0.008783483   -0.005377705   -0.003273648
      3        6           0.000007470    0.018868017    0.003822518
      4        6           0.000364363    0.002953425   -0.004560460
      5        7          -0.009730420   -0.023134416   -0.001761152
      6        6           0.029732858   -0.002676341   -0.007441408
      7        6          -0.003897701   -0.001741083    0.008203823
      8        8           0.027043265    0.010038023   -0.015732401
      9        6          -0.006272719    0.000345879    0.009957287
     10        6          -0.005705597   -0.004790254    0.010119141
     11        8          -0.042675816   -0.001109342   -0.019953132
     12        8           0.009440714    0.014021092   -0.024067050
     13        6           0.003531296   -0.003792628   -0.028756873
     14        6           0.001756193   -0.003923620    0.002740292
     15        8          -0.036896633    0.012975048    0.028792853
     16        6          -0.016445130   -0.009263329    0.003894721
     17        6           0.015559832   -0.020877427   -0.008424981
     18       17          -0.003462122    0.007571024    0.002357904
     19        6           0.016756895   -0.004304666   -0.006139665
     20        6           0.006216273    0.019530815    0.001211833
     21        1           0.023116285    0.003812999   -0.007540712
     22        1           0.003643865   -0.003258380    0.002856060
     23        1           0.003935026   -0.003422446    0.008727285
     24        1          -0.021809027   -0.003799957    0.003381667
     25        1           0.001390675    0.005119913   -0.000954992
     26        1           0.000216923   -0.002774860   -0.003159804
     27        1           0.023404422   -0.007532723    0.026376440
     28        1          -0.002216800    0.001568529    0.004375281
     29        1          -0.001270413   -0.003296734    0.000632968
     30        1           0.000170346    0.001731930    0.004838184
     31        1           0.003557117   -0.002195505   -0.001056544
     32        1           0.004235372    0.002232830   -0.000958804
     33        1          -0.004079948   -0.000192585    0.001268091
     34        1           0.000013385   -0.004006926   -0.000649057
 -------------------------------------------------------------------
 Cartesian Forces:  Max     0.042675816 RMS     0.012370509

 GradGradGradGradGradGradGradGradGradGradGradGradGradGradGradGradGradGrad
 Berny optimization.
 Internal  Forces:  Max     0.036043598 RMS     0.007851327
 Search for a local minimum.
 Step number   1 out of a maximum of  191
 All quantities printed in internal units (Hartrees-Bohrs-Radians)
 Mixed Optimization -- RFO/linear search
 Second derivative matrix not updated -- first step.
 ITU=  0
     Eigenvalues ---    0.00230   0.00230   0.00230   0.00344   0.00719
     Eigenvalues ---    0.00816   0.00910   0.01489   0.01558   0.01692
     Eigenvalues ---    0.01844   0.01923   0.01956   0.01969   0.01980
     Eigenvalues ---    0.01995   0.01997   0.02000   0.02141   0.02245
     Eigenvalues ---    0.02383   0.03515   0.03548   0.03611   0.03701
     Eigenvalues ---    0.04241   0.04586   0.05178   0.05216   0.05442
     Eigenvalues ---    0.05778   0.07950   0.08323   0.08565   0.09675
     Eigenvalues ---    0.13029   0.13542   0.16000   0.16000   0.16000
     Eigenvalues ---    0.16000   0.16000   0.16000   0.16000   0.16000
     Eigenvalues ---    0.16000   0.16754   0.18010   0.19391   0.20265
     Eigenvalues ---    0.21950   0.22371   0.23490   0.23584   0.24601
     Eigenvalues ---    0.24998   0.25000   0.25000   0.25000   0.25000
     Eigenvalues ---    0.25000   0.27002   0.27415   0.27945   0.28315
     Eigenvalues ---    0.29251   0.33058   0.33545   0.34542   0.34580
     Eigenvalues ---    0.34730   0.34784   0.34802   0.34820   0.35136
     Eigenvalues ---    0.35173   0.35939   0.35948   0.35979   0.37416
     Eigenvalues ---    0.39784   0.40410   0.41601   0.43048   0.43174
     Eigenvalues ---    0.43974   0.44301   0.44500   0.48323   0.51748
     Eigenvalues ---    0.53312   0.56569   0.57509   0.58820   0.71036
     Eigenvalues ---    0.92405
 RFO step:  Lambda=-3.05770921D-02 EMin= 2.30000000D-03
 Linear search not attempted -- first point.
 Iteration  1 RMS(Cart)=  0.08991442 RMS(Int)=  0.00177107
 Iteration  2 RMS(Cart)=  0.00276109 RMS(Int)=  0.00048014
 Iteration  3 RMS(Cart)=  0.00000417 RMS(Int)=  0.00048014
 Iteration  4 RMS(Cart)=  0.00000001 RMS(Int)=  0.00048014
 Variable       Old X    -DE/DX   Delta X   Delta X   Delta X     New X
                                 (Linear)    (Quad)   (Total)
    R1        2.58141  -0.01576   0.00000  -0.02875  -0.02875   2.55266
    R2        1.80464   0.02458   0.00000   0.04123   0.04123   1.84587
    R3        2.69081  -0.01917   0.00000  -0.04286  -0.04285   2.64796
    R4        2.66271  -0.01454   0.00000  -0.03102  -0.03103   2.63168
    R5        2.81405  -0.02299   0.00000  -0.06282  -0.06282   2.75123
    R6        2.66985  -0.01297   0.00000  -0.02778  -0.02776   2.64209
    R7        2.39935   0.01542   0.00000   0.02147   0.02183   2.42118
    R8        2.58391  -0.01341   0.00000  -0.02456  -0.02429   2.55962
    R9        2.72530   0.00965   0.00000   0.02555   0.02557   2.75087
   R10        2.93435  -0.01047   0.00000  -0.03434  -0.03434   2.90001
   R11        2.92050   0.00588   0.00000   0.01590   0.01546   2.93596
   R12        2.06426   0.00505   0.00000   0.01342   0.01342   2.07768
   R13        2.67455   0.00675   0.00000   0.01460   0.01460   2.68915
[...]
 0001056,0.00000443,0.01441692,0.00745685,0.00728210,-0.09539081,-0.096
 00737,-0.05166414,-0.00003907,-0.00027160,-0.00158137,-0.00000267,0.00
 002576,-0.00000053,0.00002820,0.00002340,-0.00000856,0.00000376,-0.000
 00747,-0.00000053,0.00001405,-0.00002849,-0.00000242,-0.00002053,-0.00
 000903,-0.00000519,-0.00006334,-0.00004901,0.00001351,-0.00002117,0.00
 008773,-0.00019539,0.00001566,-0.00001744,-0.00007570,-0.00015415,-0.0
 0111891,-0.00007657,-0.00006786,0.00002569,0.00004719,0.00000506,-0.00
 003155,0.00000737,-0.00000007,-0.00000341,0.00000360,0.00002439,-0.000
 53973,0.00326701,0.10164190,0.10151906,0.00001252,-0.00006428,-0.00000
 720,-0.00005994,0.00009063,0.00000877,0.00001530,0.00002517,-0.0000148
 8,0.00065168,0.00054233,-0.00096821,0.00023823,0.00030983,0.00030335,-
 0.00009975,-0.00036677,0.00118950,0.00000292,0.00039254,-0.00033667,0.
 00068064,-0.00065041,-0.00015484,0.00017159,-0.00006889,0.00000522,-0.
 00005660,-0.00003534,-0.00011894,0.00003035,0.00000111,0.00001949,0.00
 001814,-0.00002215,0.00007775,-0.02547553,-0.01402094,-0.01605702,-0.0
 9827099,-0.05104851,-0.10152272,-0.00011433,-0.00078594,0.00330619,0.0
 0003764,-0.00004752,-0.00002345,-0.00003841,-0.00006863,0.00000432,-0.
 00001683,0.00002710,0.00001102,-0.00002631,0.00005561,0.00001434,0.000
 03333,-0.00001614,-0.00000859,0.00004979,0.00004856,-0.00000154,0.0001
 1815,-0.00007250,0.00012336,-0.00003738,0.00004618,0.00006705,-0.00001
 237,0.00019953,0.00015650,-0.00013074,0.00004383,-0.00002051,0.0000116
 6,-0.00002830,0.00001512,-0.00000180,-0.00000126,-0.00000581,-0.000049
 95,0.00320961,-0.00455741,0.10865182,0.05460092,0.11132510,0.00004680,
 0.00005435,0.00000283,0.00002042,-0.00003520,-0.00002135,0.00006272,0.
 00001952,0.00003839,-0.00010503,-0.00053690,-0.00012365,0.00022432,0.0
 0038170,0.00001188,0.00026204,-0.00046951,-0.00099919,-0.00029764,-0.0
 0048668,-0.00026319,0.00108570,-0.00060132,-0.00003847,-0.00034094,-0.
 00020337,-0.00006268,0.00034793,0.00006638,0.00033532,-0.00017963,-0.0
 0002012,-0.00007614,-0.00009367,0.00008838,-0.00020887,-0.00272102,0.0
 0665727,0.00200525,-0.05663114,0.04469686,0.00544178,0.00057064,-0.000
 69096,-0.00034753,-0.00000863,0.00000599,0.00000464,0.00000403,0.00003
 575,-0.00000444,0.00000884,-0.00001412,-0.00000678,0.00001312,-0.00001
 919,-0.00000475,-0.00000409,0.00001139,0.00000051,-0.00006497,-0.00005
 663,-0.00001369,0.00002433,0.00034791,-0.00003677,0.00006187,0.0000221
 0,0.00007385,-0.00006328,0.00043784,0.00002638,0.00023744,0.00024633,-
 0.00002297,-0.00002750,0.00004521,-0.00000217,0.00002269,-0.00000568,0
 .00002099,0.00000353,0.00019592,0.00031245,0.00586079,-0.02493084,-0.0
 0196448,0.05511674,-0.00008201,-0.00004687,0.00002210,-0.00001424,0.00
 000846,0.00000343,-0.00001487,0.00005439,0.00003371,-0.00014493,-0.000
 81177,-0.00062517,-0.00022614,0.00043529,0.00041688,0.00132639,0.00188
 442,0.00232189,-0.00044814,0.00039039,-0.00016807,0.00028497,-0.001026
 57,-0.00031353,-0.00001806,0.00003763,0.00002982,-0.00026104,0.0000051
 6,-0.00011897,0.00017739,0.00002223,0.00005646,0.00014705,-0.00005569,
 0.00005471,0.00224359,-0.01509056,-0.00185994,0.04431434,-0.30951090,-
 0.03797367,0.00002265,0.00184312,-0.00064195,0.00000457,-0.00003912,-0
 .00001589,-0.00002905,-0.00003630,0.00000265,-0.00001172,0.00002025,0.
 00000695,-0.00001721,0.00003302,0.00001222,0.00001667,-0.00000208,-0.0
 0000892,0.00010712,0.00010558,-0.00001787,-0.00015926,-0.00087684,0.00
 004181,0.00005851,-0.00006922,-0.00001289,0.00018739,0.00026485,0.0000
 7058,-0.00004830,-0.00004787,0.00002025,0.00002611,-0.00000140,-0.0000
 0501,-0.00001800,0.00000729,-0.00001807,-0.00011570,0.00087633,0.00018
 807,0.00298139,-0.01071428,-0.00089614,-0.05003666,0.33359497,0.000161
 53,0.00003920,-0.00004507,-0.00000575,0.00005663,-0.00000434,-0.000031
 29,-0.00011261,-0.00000651,0.00012309,0.00110491,0.00050682,0.00061477
 ,0.00029899,-0.00012951,-0.00094644,-0.00034244,-0.00549478,-0.0002305
 7,-0.00004727,-0.00117391,0.00029948,-0.00187913,0.00032420,0.00026940
 ,0.00016279,0.00015833,-0.00002167,0.00001881,-0.00024219,0.00002103,-
 0.00002614,0.00004238,-0.00007562,-0.00002481,0.00018078,-0.00518987,0
 .03416668,0.00154362,0.00681023,-0.04027102,-0.05174873,-0.00156986,-0
 .00174937,0.00214699,-0.00000013,0.00002537,-0.00001533,0.00002633,0.0
 0001745,0.00000553,0.00000654,-0.00001249,-0.00000421,0.00001014,-0.00
 002426,-0.00001111,-0.00001244,-0.00000768,0.00000716,-0.00018167,-0.0
 0014640,0.00004508,0.00010631,0.00141944,-0.00014598,0.00001554,0.0000
 3926,0.00024780,0.00012761,0.00013802,0.00001592,-0.00013887,-0.000143
 13,-0.00005396,-0.00006026,-0.00001998,0.00001451,0.00000203,0.0000020
 3,-0.00000353,0.00004559,-0.00059192,0.00138698,0.00418486,-0.01270219
 ,-0.00225602,-0.00553345,0.03961389,0.05692821,-0.00001584,-0.00001824
 ,-0.00000128,0.00000273,0.00000919,0.00001071,0.00005688,0.00006448,0.
 00004252,0.00052350,0.00019570,-0.00058545,-0.00013347,-0.00000222,0.0
 0013679,0.00010822,-0.00005991,0.00046422,0.00032492,-0.00056730,0.000
 68997,0.00022245,0.00151864,-0.00013589,-0.00096106,0.00064791,-0.0003
 1881,0.00009945,0.00012583,0.00023804,-0.00008265,-0.00002372,-0.00004
 584,-0.00002658,0.00002689,-0.00014502,0.00419530,-0.00174436,-0.00354
 686,-0.22193541,0.02471594,0.13306922,0.00188027,0.00051057,-0.0014654
 7,0.00001497,-0.00000148,-0.00001710,-0.00001300,-0.00002352,0.0000065
 6,-0.00000466,0.00000744,0.00000305,-0.00000506,0.00001980,0.00000378,
 0.00001193,-0.00000109,-0.00000747,0.00002778,0.00002497,0.00000116,-0
 .00001158,-0.00017363,-0.00003080,-0.00008001,0.00000639,-0.00013500,-
 0.00017413,0.00012455,0.00000942,-0.00132846,0.00192014,-0.00054024,0.
 00000878,0.00001171,0.00006110,0.00000830,-0.00000387,0.00001045,-0.00
 010441,-0.00047017,0.00068896,-0.01841975,0.00354885,0.01563320,-0.003
 42847,-0.00024504,0.00116696,0.23924102,0.00002431,-0.00005723,-0.0000
 1791,-0.00005215,0.00011516,0.00001249,-0.00014311,-0.00013736,-0.0001
 1430,0.00053268,0.00160633,0.00031026,0.00025880,-0.00011818,-0.000206
 95,-0.00038258,0.00027788,-0.00035532,0.00014251,-0.00068780,0.0007602
 3,-0.00003370,0.00001175,-0.00041042,0.00033804,-0.00065204,-0.0001600
 8,0.00053492,-0.00005694,0.00054056,-0.00033201,-0.00000192,-0.0001524
 8,-0.00015312,0.00015290,-0.00036035,-0.01225106,0.00008735,0.00508141
 ,0.02667537,-0.04846301,-0.01802406,-0.00143735,-0.00109774,0.00473170
 ,0.00002104,-0.00003503,-0.00002655,-0.00000718,-0.00003867,0.00000025
 ,-0.00001182,0.00001810,0.00000632,-0.00001513,0.00001652,0.00000515,0
 .00000063,-0.00002189,0.00000570,-0.00000110,0.00000967,0.00000703,0.0
 0014991,0.00008501,-0.00006887,0.00007650,0.00009924,-0.00009719,-0.00
 017559,0.00002395,-0.00007402,0.00164891,-0.00073303,0.00044583,0.0000
 1533,0.00000109,-0.00004197,0.00002898,-0.00001387,0.00003493,0.000177
 10,0.00032853,-0.00031395,-0.01027085,0.00035884,0.00861660,0.02477436
 ,-0.00125210,-0.01899476,-0.03013945,0.05019587,0.00004718,0.00015710,
 0.00000394,0.00008604,-0.00024815,-0.00001929,0.00039080,0.00031971,0.
 00007145,-0.00134612,-0.00364190,-0.00123303,-0.00047909,0.00095832,0.
 00090110,0.00027110,-0.00009162,0.00036967,0.00032920,0.00071660,-0.00
 021835,-0.00053817,-0.00038815,-0.00009255,0.00064415,0.00025800,0.000
 21053,-0.00049887,-0.00007278,-0.00068622,0.00026459,0.00000043,0.0001
 3783,0.00008617,-0.00013439,0.00042989,0.02276526,-0.00618479,-0.01029
 942,0.13257439,-0.01638193,-0.14865499,0.00317558,0.00497123,-0.007345
 78,-0.00006522,0.00009114,0.00002322,0.00003574,0.00010612,0.00000126,
 0.00003025,-0.00004729,-0.00001891,0.00003458,-0.00004935,-0.00001883,
 0.00000058,0.00004356,-0.00001069,-0.00012229,-0.00011131,0.00003865,-
 0.00022145,-0.00011788,0.00000495,-0.00013078,-0.00001205,0.00004786,0
 .00009321,-0.00010706,-0.00007791,-0.00088209,0.00006596,0.00036121,0.
 00001026,-0.00016522,0.00000465,-0.00003358,0.00001252,-0.00003314,-0.
 00075338,-0.00044446,0.00072528,-0.01193684,0.00183935,0.00943297,0.00
 143959,-0.00023496,-0.00221251,-0.14524864,0.01885284,0.15815281,0.000
 25565,0.00119959,0.00013316,-0.00073139,0.00218221,0.00284604,0.011689
 87,0.01218662,-0.00060494,0.00007301,0.00063839,-0.00129125,0.00009390
 ,-0.00048619,-0.00017102,0.00004981,0.00005855,0.00008404,-0.00002449,
 -0.00001162,0.00004704,-0.00000889,-0.00002337,-0.00003786,-0.00000572
 ,0.00000130,0.00000031,-0.00003255,0.00000372,-0.00001360,0.00002011,0
 .00000057,0.00000520,0.00001571,-0.00000767,0.00000689,-0.00039000,-0.
 00009527,0.00026477,0.00010632,-0.00002002,-0.00004728,-0.00181033,0.0
 0043901,0.00054685,-0.12816598,-0.12734681,0.01018906,-0.00915300,-0.0
 2391130,0.00059164,0.00070078,-0.00081202,-0.00139604,-0.00414314,0.00
 046139,0.00363245,-0.00049485,0.00104350,-0.00001957,0.00041685,0.0000
 0931,-0.00014803,0.00002410,-0.00000810,-0.00000427,0.00000603,-0.0000
 1121,-0.00001666,0.00001676,0.00001564,0.00001830,-0.00000995,0.000000
 13,0.00000587,0.00000494,-0.00000338,-0.00000105,-0.00000305,0.0000021
 7,-0.00000126,0.00004789,-0.00000937,-0.00003638,-0.00000255,0.0000036
 8,0.00000215,-0.00001152,-0.00000668,0.00000829,-0.00000189,0.00001338
 ,-0.00003622,0.13177465,-0.00048395,-0.00117407,-0.00005248,0.00333671
 ,-0.00095840,-0.00239499,-0.01263281,-0.01653624,0.00091559,-0.0010743
 5,-0.00176871,0.00075915,-0.00008427,0.00049215,0.00019669,-0.00013887
 ,0.00011819,0.00008558,0.00000583,0.00001196,-0.00013196,0.00001718,0.
 00003525,0.00006658,0.00000710,0.00001357,0.00000580,0.00006414,0.0000
 0006,0.00002396,-0.00004171,-0.00000548,-0.00001144,-0.00003359,0.0000
 1095,-0.00001004,0.00065861,0.00045462,-0.00045922,-0.00009181,0.00002
 736,0.00003333,-0.00105497,0.00102044,0.00078688,-0.12791013,-0.273558
 50,0.00480185,0.00243550,0.00364427,-0.00096919,0.00078580,0.00078681,
 0.00036172,0.00059806,0.00107544,-0.00104691,0.00046559,0.00027770,0.0
 0006565,-0.00048489,-0.00001683,0.00016837,-0.00003604,-0.00000100,0.0
 0001359,-0.00001608,0.00002338,0.00003392,-0.00002320,-0.00003161,-0.0
 0003433,0.00001156,-0.00000074,-0.00000806,-0.00001302,0.00000131,0.00
 000251,0.00000505,-0.00000202,0.00000379,-0.00005709,0.00000129,0.0000
 3360,0.00000938,-0.00000789,-0.00001649,0.00001956,-0.00000366,-0.0000
 0582,-0.00000557,-0.00002170,0.00004157,0.13570228,0.28577520,-0.00014
 987,-0.00057650,0.00003646,0.00301010,-0.00202316,0.00478540,-0.004884
 75,-0.00777441,0.00439873,-0.00159877,0.00011943,-0.00340409,-0.000033
 83,0.00025731,0.00004139,0.00011055,0.00000938,0.00044455,-0.00003581,
 -0.00000521,-0.00004536,0.00000547,0.00001723,0.00000837,-0.00000141,0
 .00001700,0.00001171,0.00002313,-0.00001021,0.00002798,-0.00001453,0.0
 0000056,-0.00000962,-0.00000832,0.00000588,-0.00001555,0.00017260,-0.0
 0001348,-0.00034889,-0.00002060,0.00001348,0.00000614,0.00036842,0.000
 10207,0.00008372,0.01002517,0.00458397,-0.04053235,0.00517608,0.008329
 21,0.00392282,-0.00113395,0.00091906,-0.00238378,0.00364933,-0.0009912
 5,0.00443132,-0.00011604,-0.00015478,-0.00098224,-0.00020229,0.0000033
 4,0.00005538,0.00007393,-0.00001900,-0.00003712,-0.00000965,0.00001296
 ,0.00001602,-0.00000507,-0.00001499,-0.00000989,0.00000543,-0.00000086
 ,-0.00000299,-0.00001048,-0.00000137,0.00000063,0.00000136,-0.00000065
 ,0.00000245,-0.00004507,0.00001231,0.00003372,-0.00000582,-0.00001513,
 -0.00000795,0.00001602,0.00001418,-0.00000603,-0.00001068,0.00000417,0
 .00001135,-0.01429851,-0.00338060,0.02982641,-0.00074788,0.00008738,0.
 00022703,0.00203366,0.00096359,0.00238433,0.00076507,0.00012285,-0.000
 56752,-0.00031839,0.00000530,-0.00011089,-0.00001427,-0.00006320,-0.00
 008777,0.00001185,-0.00003031,0.00005927,-0.00000395,0.00001615,0.0000
 0399,0.00000057,-0.00000481,-0.00000828,-0.00000011,-0.00000300,-0.000
 00214,-0.00000634,-0.00000115,0.00000064,0.00000424,0.00000085,0.00000
 062,0.00000466,-0.00000111,-0.00000131,0.00000689,-0.00001709,-0.00002
 409,-0.00000056,0.00000029,0.00000043,-0.00001899,0.00002243,0.0000472
 0,0.00068262,-0.00284756,0.00116666,-0.00940644,0.00256897,0.00509176,
 0.00051818,0.00073935,-0.00089152,-0.31385399,-0.00769568,0.09561395,-
 0.00641033,-0.00178893,0.00369841,0.00017177,0.00019336,-0.00010627,0.
 00001947,0.00000849,-0.00000941,-0.00000031,0.00000058,0.00000075,0.00
 000238,0.00000484,0.00000816,-0.00000007,0.00000014,0.00000029,0.00000
 158,0.00000034,-0.00000015,-0.00000069,0.00000025,-0.00000024,-0.00000
 116,0.00000033,0.00000139,0.00000045,-0.00000110,0.00000131,0.00000043
 ,0.00000112,-0.00000086,0.00000007,0.00000033,0.00000037,-0.00032781,0
 .00013228,0.00012388,0.32678361,0.00170135,0.00026782,-0.00052302,0.00
 100413,-0.00388749,-0.00243234,0.00058398,-0.00108384,-0.00022387,-0.0
 0016336,-0.00009490,0.00014521,0.00011136,0.00002831,-0.00003148,-0.00
 004635,0.00001904,0.00001484,-0.00000167,0.00001204,0.00000655,0.00000
 096,-0.00000426,-0.00000802,-0.00000011,-0.00000323,-0.00000331,-0.000
 00715,0.00000019,-0.00000246,0.00000466,0.00000059,0.00000147,0.000004
 55,-0.00000166,0.00000091,0.00003587,0.00003456,-0.00001085,-0.0000006
 5,0.00000209,0.00000163,-0.00000417,0.00011489,0.00002607,-0.00286210,
 -0.00459075,-0.00071098,-0.02463420,0.00260864,0.00850415,-0.00063720,
 0.00119582,0.00084697,-0.00600946,-0.05715897,-0.00095087,0.02498157,0
 .00525487,-0.00875568,-0.00011902,-0.00039186,0.00000857,0.00000798,0.
 00000720,-0.00000386,-0.00000095,0.00000063,0.00000084,0.00000160,0.00
 000416,0.00000829,0.00000009,0.00000016,0.00000029,0.00000223,0.000000
 41,-0.00000038,-0.00000056,0.00000027,-0.00000053,-0.00000061,0.000005
 75,-0.00000150,0.00000047,-0.00000159,0.00000068,0.00000039,0.00000167
 ,-0.00000206,0.00000006,-0.00000014,-0.00000057,-0.00114011,0.00034602
 ,0.00046536,0.00741896,0.05643882,0.00047617,0.00009009,-0.00030010,0.
 00234431,-0.00245914,0.00706998,-0.00049536,-0.00005663,-0.00077006,-0
 .00016306,0.00009707,-0.00055479,-0.00001742,0.00002339,-0.00012998,0.
 00004149,0.00000840,0.00008806,-0.00000751,0.00000632,0.00000102,-0.00
 000099,-0.00000079,-0.00000535,-0.00000041,0.00000025,-0.00000035,-0.0
 0000030,-0.00000138,0.00000297,0.00000024,0.00000048,-0.00000088,0.000
 00070,0.00000047,-0.00000240,-0.00000293,-0.00002928,-0.00001308,-0.00
 000206,0.00000212,0.00000072,0.00000129,0.00001793,0.00006641,0.001199
 20,-0.00068936,0.00486503,0.00045233,-0.00107582,0.00342873,-0.0011169
 4,0.00034549,-0.00193799,0.09590580,-0.00033420,-0.07299025,0.00826789
 ,0.00061475,0.00212205,-0.00011569,-0.00007579,-0.00020513,0.00001394,
 -0.00000553,-0.00000196,-0.00000111,0.00000129,0.00000089,0.00000205,0
 .00000027,0.00000505,0.00000006,-0.00000018,0.00000009,-0.00000023,-0.
 00000019,0.,-0.00000012,0.,0.00000044,0.00000041,-0.00000160,-0.000000
 36,0.00000027,-0.00000040,0.00000063,0.00000091,0.00000056,-0.00000040
 ,-0.00000044,0.00000051,0.00000107,-0.00009211,0.00002638,-0.00000449,
 -0.10492644,0.00258199,0.06325632,0.00265752,-0.00011945,-0.00208698,-
 0.00926589,-0.02630305,0.00059527,-0.00416399,0.00056603,0.00327147,0.
 00031978,-0.00144871,-0.00037616,0.00009621,0.00021640,0.00003320,0.00
 001110,0.00006099,0.00000842,-0.00000915,-0.00002535,-0.00003233,0.000
 00249,0.00001727,0.00002314,0.00000013,0.00000977,0.00000903,0.0000217
 3,-0.00000347,0.00001219,-0.00001292,-0.00000085,-0.00000524,-0.000012
 40,0.00000695,-0.00000580,0.00005045,-0.00008586,-0.00013574,-0.000032
 21,0.00001071,0.00001341,-0.00067413,0.00001527,0.00028078,-0.00101575
 ,0.00123893,0.00024279,0.00071093,0.00214810,0.00276534,0.00001628,0.0
 0108184,0.00025478,0.01118008,0.01408667,-0.00047840,-0.12617159,-0.12
 527086,0.01065390,-0.00034283,-0.00009528,-0.00011324,-0.00002181,-0.0
 0001067,0.00000815,-0.00000283,0.00000497,0.00000578,-0.00000854,-0.00
 001483,-0.00001558,0.00000386,-0.00000018,-0.00000246,-0.00000703,-0.0
 0000002,0.00000118,0.00000136,-0.00000088,0.00000150,-0.00004503,0.000
 00719,0.00003797,0.00000228,-0.00000095,-0.00000501,0.00000312,-0.0000
 0221,-0.00000097,-0.00000014,-0.00000689,0.00001370,0.00002072,-0.0000
 7230,-0.00017602,0.00010380,-0.00023253,-0.00176395,0.12658440,0.00024
 839,0.00034330,0.00052134,0.00186282,0.00311434,-0.00099756,0.00003561
 ,0.00065966,-0.00074819,0.00036859,0.00010823,-0.00009394,0.00004034,0
 .00011703,0.00001987,-0.00003631,0.00002240,-0.00000165,-0.00000077,-0
 .00000166,0.00000145,0.00000209,-0.00000084,0.00000069,0.00000018,0.00
 000020,0.00000006,-0.00000041,0.00000074,-0.00000139,0.00000039,-0.000
 00031,0.00000043,-0.00000015,-0.00000037,0.00000084,0.00001818,0.00002
 514,0.00000836,0.00000027,-0.00000077,0.00000036,0.00005732,0.00000586
 ,-0.00001313,0.00048975,0.00036271,0.00005496,0.00248950,-0.00081452,-
 0.00231192,-0.00011404,-0.00115826,-0.00019317,-0.01316396,-0.01665841
 ,0.00127106,-0.12653111,-0.27493811,0.00351782,-0.00008699,0.00004423,
 0.00013668,-0.00000620,-0.00000338,0.00000382,0.00000030,0.00000013,-0
 .00000017,-0.00000175,0.00000053,-0.00000059,-0.00000024,-0.00000006,0
 .00000002,0.,0.,0.,-0.00000010,0.00000009,-0.00000012,0.00000699,0.000
 00512,-0.00000586,0.00000011,0.00000047,-0.00000002,0.,0.00000017,0.00
 000002,0.00000053,0.00000045,-0.00000057,-0.00006831,-0.00002911,0.000
 09468,0.00016579,0.00087476,0.00091253,0.13422322,0.28792025,-0.001993
 71,0.00063770,-0.00240718,0.00530562,0.00898978,0.00468161,0.00322275,
 -0.00096741,0.00373731,-0.00004919,0.00053192,0.00009868,-0.00002063,-
 0.00004619,0.00001789,-0.00000241,-0.00000825,0.00000525,0.00000429,0.
 00000548,0.00001531,-0.00001085,-0.00000637,-0.00001305,-0.00000128,-0
 .00000210,-0.00000372,-0.00000790,-0.00000189,0.00000117,0.00000542,0.
 00000105,-0.00000004,0.00000427,-0.00000042,-0.00000184,-0.00002094,0.
 00004267,0.00001577,0.00002159,-0.00000325,-0.00000265,0.00021620,0.00
 000496,-0.00019931,0.00013957,-0.00022951,-0.00101077,0.00278848,-0.00
 216448,0.00613403,0.00005574,-0.00061837,0.00009465,-0.00514117,-0.008
 31029,0.00336303,0.01046505,0.00302822,-0.03842216,-0.00011351,0.00014
 168,-0.00052876,0.00000893,0.00000115,-0.00000582,0.00000072,-0.000001
 57,-0.00000247,0.00000826,0.00000561,0.00000648,-0.00000128,0.00000010
 ,0.00000112,0.00000242,0.00000002,-0.00000054,-0.00000071,0.00000036,0
 .00000009,0.00001202,-0.00000029,-0.00001127,-0.00000277,-0.00000076,0
 .00000108,-0.00000023,0.00000090,-0.00000020,-0.00000111,0.00000321,-0
 .00000807,-0.00016602,0.00009504,-0.00035419,-0.00169353,0.00104801,-0
 .00399186,-0.01303410,-0.00217672,0.02879043\\0.00001164,-0.00000629,-
 0.00001147,-0.00000621,0.00001412,-0.00000032,0.00000313,-0.00000478,-
 0.00000401,0.00000756,0.00001566,0.00000661,0.00000943,-0.00000783,-0.
 00000932,-0.00001474,-0.00000603,0.00000541,0.00000292,0.00001061,-0.0
 0000327,0.00000170,-0.00000989,-0.00000157,-0.00000261,-0.00000156,-0.
 00000097,-0.00000620,0.00000399,0.00001939,0.00000057,-0.00000041,-0.0
 0000723,0.00000069,-0.00000147,-0.00000916,0.00003573,-0.00000093,-0.0
 0001895,-0.00001967,0.00000767,0.00000229,-0.00002054,-0.00000352,0.00
 001073,-0.00000291,0.00000090,0.00000010,-0.00000309,0.00001082,0.0000
 0258,0.00000253,-0.00000659,-0.00000093,0.00000023,-0.00000428,-0.0000
 0316,-0.00000330,-0.00000437,-0.00000321,-0.00000682,-0.00000405,0.000
 00178,-0.00000143,-0.00000591,0.00000149,-0.00000143,-0.00000011,-0.00
 000266,-0.00000301,-0.00000262,-0.00000325,0.00000534,-0.00000251,0.00
 000392,0.00000157,0.00000081,0.00000040,0.00000536,-0.00000429,0.00000
 738,-0.00000279,0.00000276,0.00000614,0.00000615,0.00000818,0.00000135
 ,0.00000688,0.00000289,0.00000977,-0.00000220,0.00000184,0.00000530,-0
 .00000029,-0.00000110,0.00000179,-0.00000204,-0.00000148,-0.00000248,-
 0.00000215,-0.00000024,-0.00000449\\\@


 SEE YOU NOW,
 YOUR BAIT OF FALSEHOOD TAKES THIS CARP OF TRUTH.
 AND THUS DO WE OF WISDOM AND OF REACH...
 BY INDIRECTIONS FIND DIRECTIONS OUT.    -- HAMLET, II, 1
 Job cpu time:  0 days  7 hours 52 minutes 51.9 seconds.
 File lengths (MBytes):  RWF=    869 Int=      0 D2E=      0 Chk=     20 Scr=      1
 Normal termination of Gaussian 09 at Sat Mar 23 00:15:25 2019.
