 Entering Gaussian System, Link 0=g09
 Initial command:
 /home/yuheng/proj/yuheng/g09/l1.exe /home/yuheng/proj/yuheng/g09_scratch/Gau-34367.inp -scrdir=/home/yuheng/proj/yuheng/g09_scratch/
 Entering Link 1 = /home/yuheng/proj/yuheng/g09/l1.exe PID=     34368.
  
 Copyright (c) 1988,1990,1992,1993,1995,1998,2003,2009,2010,
            Gaussian, Inc.  All Rights Reserved.
  
 This is part of the Gaussian(R) 09 program.  It is based on
 the Gaussian(R) 03 system (copyright 2003, Gaussian, Inc.),
 the Gaussian(R) 98 system (copyright 1998, Gaussian, Inc.),
 the Gaussian(R) 94 system (copyright 1995, Gaussian, Inc.),
 the Gaussian 92(TM) system (copyright 1992, Gaussian, Inc.),
 the Gaussian 90(TM) system (copyright 1990, Gaussian, Inc.),
 the Gaussian 88(TM) system (copyright 1988, Gaussian, Inc.),
 the Gaussian 86(TM) system (copyright 1986, Carnegie Mellon
 University), and the Gaussian 82(TM) system (copyright 1983,
 Carnegie Mellon University). Gaussian is a federally registered
 trademark of Gaussian, Inc.
  
 This software contains proprietary and confidential information,
 including trade secrets, belonging to Gaussian, Inc.
  
 This software is provided under written license and may be
 used, copied, transmitted, or stored only in accord with that
 written license.
  
 The following legend is applicable only to US Government
 contracts under FAR:
  
                    RESTRICTED RIGHTS LEGEND
  
 Use, reproduction and disclosure by the US Government is
 subject to restrictions as set forth in subparagraphs (a)
 and (c) of the Commercial Computer Software - Restricted
 Rights clause in FAR 52.227-19.
  
 Gaussian, Inc.
 340 Quinnipiac St., Bldg. 40, Wallingford CT 06492
  
  
 ---------------------------------------------------------------
 Warning -- This program may not be used in any manner that
 competes with the business of Gaussian, Inc. or will provide
 assistance to any competitor of Gaussian, Inc.  The licensee
 of this program is prohibited from giving any competitor of
 Gaussian, Inc. access to this program.  By using this program,
 the user acknowledges that Gaussian, Inc. is engaged in the
 business of creating and licensing software in the field of
 computational chemistry and represents and warrants to the
 licensee that it is not a competitor of Gaussian, Inc. and that
 it will not use this program in any manner prohibited above.
 ---------------------------------------------------------------
  

 Cite this work as:
 Gaussian 09, Revision B.01,
 M. J. Frisch, G. W. Trucks, H. B. Schlegel, G. E. Scuseria, 
 M. A. Robb, J. R. Cheeseman, G. Scalmani, V. Barone, B. Mennucci, 
 G. A. Petersson, H. Nakatsuji, M. Caricato, X. Li, H. P. Hratchian, 
 A. F. Izmaylov, J. Bloino, G. Zheng, J. L. Sonnenberg, M. Hada, 
 M. Ehara, K. Toyota, R. Fukuda, J. Hasegawa, M. Ishida, T. Nakajima, 
 Y. Honda, O. Kitao, H. Nakai, T. Vreven, J. A. Montgomery, Jr., 
 J. E. Peralta, F. Ogliaro, M. Bearpark, J. J. Heyd, E. Brothers, 
 K. N. Kudin, V. N. Staroverov, T. Keith, R. Kobayashi, J. Normand, 
 K. Raghavachari, A. Rendell, J. C. Burant, S. S. Iyengar, J. Tomasi, 
 M. Cossi, N. Rega, J. M. Millam, M. Klene, J. E. Knox, J. B. Cross, 
 V. Bakken, C. Adamo, J. Jaramillo, R. Gomperts, R. E. Stratmann, 
 O. Yazyev, A. J. Austin, R. Cammi, C. Pomelli, J. W. Ochterski, 
 R. L. Martin, K. Morokuma, V. G. Zakrzewski, G. A. Voth, 
 P. Salvador, J. J. Dannenberg, S. Dapprich, A. D. Daniels, 
 O. Farkas, J. B. Foresman, J. V. Ortiz, J. Cioslowski, 
 and D. J. Fox, Gaussian, Inc., Wallingford CT, 2010.
 
 ******************************************
 Gaussian 09:  EM64L-G09RevB.01 12-Aug-2010
                22-Mar-2019 
 ******************************************
 %mem=16gb
 %nprocshared=20
 Will use up to   20 processors via shared memory.
 %chk=1b-conf-18.chk
 ----------------------------------------------------------------------
 # m062x/6-31+G(d,p) opt freq=noraman integral(ultrafinegrid) scrf=(ief
 pcm,read,solvent=methanol)
 ----------------------------------------------------------------------
 1/14=-1,18=20,19=15,26=3,38=1,40=2/1,3;
 2/9=110,12=2,17=6,18=5,40=1/2;
 3/5=1,6=6,7=111,11=2,16=1,25=1,30=1,70=2203,71=1,72=3,74=-55,75=-5/1,2,3;
 4//1;
 5/5=2,38=5,53=3/2;
 6/7=2,8=2,9=2,10=2,28=1/1;
 7//1,2,3,16;
 1/14=-1,18=20,19=15/3(2);
 2/9=110/2;
 99//99;
 2/9=110/2;
 3/5=1,6=6,7=111,11=2,16=1,25=1,30=1,70=2205,71=1,72=3,74=-55,75=-5/1,2,3;
 4/5=5,16=3/1;
 5/5=2,38=5,53=3/2;
 7//1,2,3,16;
 1/14=-1,18=20,19=15/3(-5);
 2/9=110/2;
 6/7=2,8=2,9=2,10=2,19=2,28=1/1;
 99/9=1/99;
 ----------------------------------------------------------------------
 Candidate Structure: 1b, Conformer: 18 geometry optimization and frequ
 ency calculation with methanol solvation
 ----------------------------------------------------------------------
 Symbolic Z-matrix:
 Charge =  0 Multiplicity = 1
 O                     0.40658   0.934    -0.02949 
 C                    -0.70982   1.71996   0.02357 
 C                    -0.84906   2.90117  -0.75968 
 C                     0.20099   3.39819  -1.69014 
 N                     1.37123   2.91782  -1.75037 
 C                     2.13361   3.67594  -2.70461 
 C                     3.09355   2.7877   -3.54739 
 O                     3.83339   3.65026  -4.39809 
 C                     4.11823   1.98458  -2.70471 
 C                     3.56668   0.70588  -2.06184 
 O                     4.32207   0.30679  -1.00566 
 O                     2.58252   0.09647  -2.46967 
 C                     1.06688   4.49102  -3.46855 
 C                     0.59982   3.93732  -4.82791 
 O                    -0.02948   4.40771  -2.57947 
 C                    -2.03927   3.65536  -0.65972 
 C                    -3.07393   3.25017   0.2033 
 Cl                   -4.51925   4.18524   0.31273 
 C                    -2.9304    2.0843    0.97697 
 C                    -1.75082   1.32212   0.88578 
 H                     1.02481   1.29366  -0.66433 
 H                     2.74943   4.38277  -2.14332 
 H                     2.51978   2.10231  -4.17356 
 H                     4.31599   3.12526  -5.02075 
 H                     4.5475    2.62325  -1.93183 
 H                     4.94813   1.66592  -3.33528 
 H                     3.95125  -0.48044  -0.63699 
 H                     1.38279   5.52911  -3.57945 
 H                     0.27064   2.90113  -4.74691 
 H                    -0.23592   4.52082  -5.21378 
 H                     1.39732   3.98262  -5.56927 
 H                    -2.16712   4.55473  -1.24458 
 H                    -3.72527   1.77398   1.63913 
 H                    -1.64411   0.42539   1.47884 
 

 GradGradGradGradGradGradGradGradGradGradGradGradGradGradGradGradGradGrad
 Berny optimization.
 Initialization pass.
                           ----------------------------
                           !    Initial Parameters    !
                           ! (Angstroms and Degrees)  !
 --------------------------                            --------------------------
 ! Name  Definition              Value          Derivative Info.                !
 --------------------------------------------------------------------------------
 ! R1    R(1,2)                  1.3663         estimate D2E/DX2                !
 ! R2    R(1,21)                 0.9563         estimate D2E/DX2                !
 ! R3    R(2,3)                  1.4241         estimate D2E/DX2                !
 ! R4    R(2,20)                 1.409          estimate D2E/DX2                !
 ! R5    R(3,4)                  1.4884         estimate D2E/DX2                !
 ! R6    R(3,16)                 1.4126         estimate D2E/DX2                !
 ! R7    R(4,5)                  1.2664         estimate D2E/DX2                !
 ! R8    R(4,15)                 1.365          estimate D2E/DX2                !
 ! R9    R(5,6)                  1.4375         estimate D2E/DX2                !
 ! R10   R(6,7)                  1.5559         estimate D2E/DX2                !
 ! R11   R(6,13)                 1.5446         estimate D2E/DX2                !
 ! R12   R(6,22)                 1.0926         estimate D2E/DX2                !
 ! R13   R(7,8)                  1.4195         estimate D2E/DX2                !
 ! R14   R(7,9)                  1.5508         estimate D2E/DX2                !
 ! R15   R(7,23)                 1.0914         estimate D2E/DX2                !
 ! R16   R(8,24)                 0.9467         estimate D2E/DX2                !
 ! R17   R(9,10)                 1.5338         estimate D2E/DX2                !
 ! R18   R(9,25)                 1.0906         estimate D2E/DX2                !
 ! R19   R(9,26)                 1.0899         estimate D2E/DX2                !
 ! R20   R(10,11)                1.3585         estimate D2E/DX2                !
 ! R21   R(10,12)                1.2273         estimate D2E/DX2                !
 ! R22   R(11,27)                0.9451         estimate D2E/DX2                !
 ! R23   R(13,14)                1.5403         estimate D2E/DX2                !
 ! R24   R(13,15)                1.414          estimate D2E/DX2                !
 ! R25   R(13,28)                1.0907         estimate D2E/DX2                !
 ! R26   R(14,29)                1.0902         estimate D2E/DX2                !
 ! R27   R(14,30)                1.0899         estimate D2E/DX2                !
 ! R28   R(14,31)                1.0898         estimate D2E/DX2                !
 ! R29   R(16,17)                1.4069         estimate D2E/DX2                !
 ! R30   R(16,32)                1.0804         estimate D2E/DX2                !
 ! R31   R(17,18)                1.7249         estimate D2E/DX2                !
 ! R32   R(17,19)                1.4066         estimate D2E/DX2                !
 ! R33   R(19,20)                1.4074         estimate D2E/DX2                !
 ! R34   R(19,33)                1.0801         estimate D2E/DX2                !
 ! R35   R(20,34)                1.0804         estimate D2E/DX2                !
 ! A1    A(2,1,21)             109.7333         estimate D2E/DX2                !
 ! A2    A(1,2,3)              122.3875         estimate D2E/DX2                !
 ! A3    A(1,2,20)             117.7103         estimate D2E/DX2                !
 ! A4    A(3,2,20)             119.9011         estimate D2E/DX2                !
 ! A5    A(2,3,4)              123.4908         estimate D2E/DX2                !
 ! A6    A(2,3,16)             119.0978         estimate D2E/DX2                !
 ! A7    A(4,3,16)             117.4113         estimate D2E/DX2                !
 ! A8    A(3,4,5)              123.7088         estimate D2E/DX2                !
 ! A9    A(3,4,15)             122.3538         estimate D2E/DX2                !
 ! A10   A(5,4,15)             113.9265         estimate D2E/DX2                !
 ! A11   A(4,5,6)              108.7591         estimate D2E/DX2                !
 ! A12   A(5,6,7)              112.687          estimate D2E/DX2                !
 ! A13   A(5,6,13)             103.9062         estimate D2E/DX2                !
 ! A14   A(5,6,22)             107.4015         estimate D2E/DX2                !
 ! A15   A(7,6,13)             117.3509         estimate D2E/DX2                !
 ! A16   A(7,6,22)             107.4478         estimate D2E/DX2                !
 ! A17   A(13,6,22)            107.5735         estimate D2E/DX2                !
 ! A18   A(6,7,8)              107.4146         estimate D2E/DX2                !
 ! A19   A(6,7,9)              114.1399         estimate D2E/DX2                !
 ! A20   A(6,7,23)             110.1793         estimate D2E/DX2                !
 ! A21   A(8,7,9)              107.2137         estimate D2E/DX2                !
 ! A22   A(8,7,23)             108.1663         estimate D2E/DX2                !
 ! A23   A(9,7,23)             109.5061         estimate D2E/DX2                !
 ! A24   A(7,8,24)             108.8366         estimate D2E/DX2                !
 ! A25   A(7,9,10)             114.953          estimate D2E/DX2                !
 ! A26   A(7,9,25)             109.9903         estimate D2E/DX2                !
 ! A27   A(7,9,26)             109.8856         estimate D2E/DX2                !
 ! A28   A(10,9,25)            109.4335         estimate D2E/DX2                !
 ! A29   A(10,9,26)            105.8165         estimate D2E/DX2                !
 ! A30   A(25,9,26)            106.3502         estimate D2E/DX2                !
 ! A31   A(9,10,11)            111.7668         estimate D2E/DX2                !
 ! A32   A(9,10,12)            124.266          estimate D2E/DX2                !
 ! A33   A(11,10,12)           123.944          estimate D2E/DX2                !
 ! A34   A(10,11,27)           109.2586         estimate D2E/DX2                !
 ! A35   A(6,13,14)            117.1417         estimate D2E/DX2                !
 ! A36   A(6,13,15)            101.1513         estimate D2E/DX2                !
 ! A37   A(6,13,28)            110.6392         estimate D2E/DX2                !
 ! A38   A(14,13,15)           107.3743         estimate D2E/DX2                !
 ! A39   A(14,13,28)           109.8897         estimate D2E/DX2                !
 ! A40   A(15,13,28)           110.1554         estimate D2E/DX2                !
 ! A41   A(13,14,29)           111.5703         estimate D2E/DX2                !
 ! A42   A(13,14,30)           110.6414         estimate D2E/DX2                !
 ! A43   A(13,14,31)           111.316          estimate D2E/DX2                !
 ! A44   A(29,14,30)           107.6749         estimate D2E/DX2                !
 ! A45   A(29,14,31)           108.1195         estimate D2E/DX2                !
 ! A46   A(30,14,31)           107.34           estimate D2E/DX2                !
 ! A47   A(4,15,13)            108.8036         estimate D2E/DX2                !
 ! A48   A(3,16,17)            120.6153         estimate D2E/DX2                !
 ! A49   A(3,16,32)            120.3875         estimate D2E/DX2                !
 ! A50   A(17,16,32)           118.9971         estimate D2E/DX2                !
 ! A51   A(16,17,18)           119.9334         estimate D2E/DX2                !
 ! A52   A(16,17,19)           120.0702         estimate D2E/DX2                !
 ! A53   A(18,17,19)           119.9964         estimate D2E/DX2                !
 ! A54   A(17,19,20)           119.9201         estimate D2E/DX2                !
 ! A55   A(17,19,33)           120.0172         estimate D2E/DX2                !
 ! A56   A(20,19,33)           120.0627         estimate D2E/DX2                !
 ! A57   A(2,20,19)            120.3954         estimate D2E/DX2                !
 ! A58   A(2,20,34)            119.8204         estimate D2E/DX2                !
 ! A59   A(19,20,34)           119.7841         estimate D2E/DX2                !
 ! D1    D(21,1,2,3)            -1.2089         estimate D2E/DX2                !
 ! D2    D(21,1,2,20)          178.3919         estimate D2E/DX2                !
 ! D3    D(1,2,3,4)             -0.7117         estimate D2E/DX2                !
 ! D4    D(1,2,3,16)           179.3966         estimate D2E/DX2                !
 ! D5    D(20,2,3,4)           179.696          estimate D2E/DX2                !
 ! D6    D(20,2,3,16)           -0.1957         estimate D2E/DX2                !
 ! D7    D(1,2,20,19)         -179.5131         estimate D2E/DX2                !
 ! D8    D(1,2,20,34)            0.3439         estimate D2E/DX2                !
 ! D9    D(3,2,20,19)            0.098          estimate D2E/DX2                !
 ! D10   D(3,2,20,34)          179.955          estimate D2E/DX2                !
 ! D11   D(2,3,4,5)             -9.0962         estimate D2E/DX2                !
 ! D12   D(2,3,4,15)           169.6246         estimate D2E/DX2                !
 ! D13   D(16,3,4,5)           170.7972         estimate D2E/DX2                !
 ! D14   D(16,3,4,15)          -10.482          estimate D2E/DX2                !
 ! D15   D(2,3,16,17)            0.1596         estimate D2E/DX2                !
 ! D16   D(2,3,16,32)         -179.9821         estimate D2E/DX2                !
 ! D17   D(4,3,16,17)         -179.7386         estimate D2E/DX2                !
 ! D18   D(4,3,16,32)            0.1197         estimate D2E/DX2                !
 ! D19   D(3,4,5,6)           -177.1862         estimate D2E/DX2                !
 ! D20   D(15,4,5,6)             3.996          estimate D2E/DX2                !
 ! D21   D(3,4,15,13)         -169.886          estimate D2E/DX2                !
 ! D22   D(5,4,15,13)            8.9499         estimate D2E/DX2                !
 ! D23   D(4,5,6,7)           -141.9966         estimate D2E/DX2                !
 ! D24   D(4,5,6,13)           -13.9351         estimate D2E/DX2                !
 ! D25   D(4,5,6,22)            99.8659         estimate D2E/DX2                !
 ! D26   D(5,6,7,8)           -177.118          estimate D2E/DX2                !
 ! D27   D(5,6,7,9)            -58.4035         estimate D2E/DX2                !
 ! D28   D(5,6,7,23)            65.2755         estimate D2E/DX2                !
 ! D29   D(13,6,7,8)            62.2507         estimate D2E/DX2                !
 ! D30   D(13,6,7,9)          -179.0349         estimate D2E/DX2                !
 ! D31   D(13,6,7,23)          -55.3558         estimate D2E/DX2                !
 ! D32   D(22,6,7,8)           -59.0078         estimate D2E/DX2                !
 ! D33   D(22,6,7,9)            59.7067         estimate D2E/DX2                !
 ! D34   D(22,6,7,23)         -176.6143         estimate D2E/DX2                !
 ! D35   D(5,6,13,14)          -98.3732         estimate D2E/DX2                !
 ! D36   D(5,6,13,15)           17.9271         estimate D2E/DX2                !
 ! D37   D(5,6,13,28)          134.6407         estimate D2E/DX2                !
 ! D38   D(7,6,13,14)           26.756          estimate D2E/DX2                !
 ! D39   D(7,6,13,15)          143.0563         estimate D2E/DX2                !
 ! D40   D(7,6,13,28)         -100.2301         estimate D2E/DX2                !
 ! D41   D(22,6,13,14)         147.949          estimate D2E/DX2                !
 ! D42   D(22,6,13,15)         -95.7507         estimate D2E/DX2                !
 ! D43   D(22,6,13,28)          20.963          estimate D2E/DX2                !
 ! D44   D(6,7,8,24)          -170.5307         estimate D2E/DX2                !
 ! D45   D(9,7,8,24)            66.3839         estimate D2E/DX2                !
 ! D46   D(23,7,8,24)          -51.622          estimate D2E/DX2                !
 ! D47   D(6,7,9,10)            79.872          estimate D2E/DX2                !
 ! D48   D(6,7,9,25)           -44.1675         estimate D2E/DX2                !
 ! D49   D(6,7,9,26)          -160.9197         estimate D2E/DX2                !
 ! D50   D(8,7,9,10)          -161.2996         estimate D2E/DX2                !
 ! D51   D(8,7,9,25)            74.661          estimate D2E/DX2                !
 ! D52   D(8,7,9,26)           -42.0912         estimate D2E/DX2                !
 ! D53   D(23,7,9,10)          -44.1691         estimate D2E/DX2                !
 ! D54   D(23,7,9,25)         -168.2086         estimate D2E/DX2                !
 ! D55   D(23,7,9,26)           75.0392         estimate D2E/DX2                !
 ! D56   D(7,9,10,11)         -158.9023         estimate D2E/DX2                !
 ! D57   D(7,9,10,12)           22.7914         estimate D2E/DX2                !
 ! D58   D(25,9,10,11)         -34.5691         estimate D2E/DX2                !
 ! D59   D(25,9,10,12)         147.1246         estimate D2E/DX2                !
 ! D60   D(26,9,10,11)          79.6487         estimate D2E/DX2                !
 ! D61   D(26,9,10,12)         -98.6576         estimate D2E/DX2                !
 ! D62   D(9,10,11,27)         179.9322         estimate D2E/DX2                !
 ! D63   D(12,10,11,27)         -1.7551         estimate D2E/DX2                !
 ! D64   D(6,13,14,29)          53.0494         estimate D2E/DX2                !
 ! D65   D(6,13,14,30)         172.9037         estimate D2E/DX2                !
 ! D66   D(6,13,14,31)         -67.8304         estimate D2E/DX2                !
 ! D67   D(15,13,14,29)        -59.7884         estimate D2E/DX2                !
 ! D68   D(15,13,14,30)         60.0659         estimate D2E/DX2                !
 ! D69   D(15,13,14,31)        179.3319         estimate D2E/DX2                !
 ! D70   D(28,13,14,29)       -179.5996         estimate D2E/DX2                !
 ! D71   D(28,13,14,30)        -59.7453         estimate D2E/DX2                !
 ! D72   D(28,13,14,31)         59.5207         estimate D2E/DX2                !
 ! D73   D(6,13,15,4)          -16.2945         estimate D2E/DX2                !
 ! D74   D(14,13,15,4)         106.9955         estimate D2E/DX2                !
 ! D75   D(28,13,15,4)        -133.3629         estimate D2E/DX2                !
 ! D76   D(3,16,17,18)         179.9403         estimate D2E/DX2                !
 ! D77   D(3,16,17,19)          -0.0245         estimate D2E/DX2                !
 ! D78   D(32,16,17,18)          0.0801         estimate D2E/DX2                !
 ! D79   D(32,16,17,19)       -179.8847         estimate D2E/DX2                !
 ! D80   D(16,17,19,20)         -0.076          estimate D2E/DX2                !
 ! D81   D(16,17,19,33)       -179.9936         estimate D2E/DX2                !
 ! D82   D(18,17,19,20)        179.9591         estimate D2E/DX2                !
 ! D83   D(18,17,19,33)          0.0416         estimate D2E/DX2                !
 ! D84   D(17,19,20,2)           0.0388         estimate D2E/DX2                !
 ! D85   D(17,19,20,34)       -179.8183         estimate D2E/DX2                !
 ! D86   D(33,19,20,2)         179.9562         estimate D2E/DX2                !
 ! D87   D(33,19,20,34)          0.0992         estimate D2E/DX2                !
 --------------------------------------------------------------------------------
 Trust Radius=3.00D-01 FncErr=1.00D-07 GrdErr=1.00D-06
 Number of steps in this run=    191 maximum allowed number of steps=    204.
 GradGradGradGradGradGradGradGradGradGradGradGradGradGradGradGradGradGrad

                          Input orientation:                          
 ---------------------------------------------------------------------
 Center     Atomic      Atomic             Coordinates (Angstroms)
 Number     Number       Type             X           Y           Z
 ---------------------------------------------------------------------
      1          8           0        0.406578    0.933998   -0.029489
      2          6           0       -0.709823    1.719961    0.023570
      3          6           0       -0.849064    2.901168   -0.759680
      4          6           0        0.200991    3.398185   -1.690140
      5          7           0        1.371234    2.917820   -1.750371
      6          6           0        2.133614    3.675939   -2.704607
      7          6           0        3.093547    2.787703   -3.547390
      8          8           0        3.833394    3.650264   -4.398086
      9          6           0        4.118234    1.984584   -2.704708
     10          6           0        3.566676    0.705880   -2.061838
     11          8           0        4.322066    0.306786   -1.005657
     12          8           0        2.582524    0.096474   -2.469670
     13          6           0        1.066883    4.491021   -3.468548
     14          6           0        0.599821    3.937318   -4.827906
     15          8           0       -0.029475    4.407710   -2.579466
     16          6           0       -2.039270    3.655360   -0.659717
     17          6           0       -3.073930    3.250170    0.203297
     18         17           0       -4.519250    4.185241    0.312732
     19          6           0       -2.930396    2.084303    0.976965
     20          6           0       -1.750824    1.322115    0.885776
     21          1           0        1.024808    1.293659   -0.664332
     22          1           0        2.749430    4.382766   -2.143325
     23          1           0        2.519781    2.102311   -4.173564
     24          1           0        4.315989    3.125259   -5.020750
     25          1           0        4.547503    2.623252   -1.931832
     26          1           0        4.948127    1.665921   -3.335282
     27          1           0        3.951250   -0.480436   -0.636987
     28          1           0        1.382792    5.529110   -3.579449
     29          1           0        0.270636    2.901126   -4.746909
     30          1           0       -0.235919    4.520823   -5.213779
     31          1           0        1.397321    3.982618   -5.569265
     32          1           0       -2.167120    4.554725   -1.244577
     33          1           0       -3.725274    1.773978    1.639130
     34          1           0       -1.644109    0.425392    1.478836
 ---------------------------------------------------------------------
                    Distance matrix (angstroms):
                    1          2          3          4          5
     1  O    0.000000
     2  C    1.366347   0.000000
     3  C    2.445317   1.424120   0.000000
     4  C    2.978631   2.565701   1.488421   0.000000
     5  N    2.797775   2.985386   2.431351   1.266431   0.000000
     6  C    4.202041   4.399311   3.644088   2.200300   1.437544
     7  C    4.799130   5.325172   4.829946   3.491267   2.492503
     8  O    6.181085   6.627061   5.977002   4.537716   3.689051
     9  C    4.694350   5.551906   5.412699   4.286305   3.054128
    10  C    3.764133   4.864744   5.100359   4.326026   3.132037
    11  O    4.083791   5.326939   5.790674   5.196973   4.009926
    12  O    3.375007   4.437511   4.750386   4.144956   3.153507
    13  C    4.991547   4.798994   3.679192   2.259822   2.349409
    14  C    5.664104   5.492600   4.441096   3.208630   3.332518
    15  O    4.331189   3.802981   2.500603   1.364975   2.206617
    16  C    3.712839   2.445420   1.412582   2.479250   3.655821
    17  C    4.187216   2.821851   2.449317   3.785779   4.866904
    18  Cl   5.911977   4.546752   4.033507   5.187642   6.368717
    19  C    3.670361   2.443901   2.831104   4.318023   5.161117
    20  C    2.375443   1.409029   2.452367   3.841223   4.386661
    21  H    0.956342   1.914128   2.470743   2.481932   1.984286
    22  H    4.674533   4.873643   4.130226   2.769353   2.049367
    23  H    4.796242   5.309658   4.862293   3.636409   2.802870
    24  H    6.708040   7.258017   6.699605   5.301006   4.405677
    25  H    4.860015   5.681462   5.529386   4.421663   3.195056
    26  H    5.664772   6.580061   6.462738   5.314370   4.107719
    27  H    3.864502   5.196507   5.873101   5.497024   4.409564
    28  H    5.888146   5.645387   4.454027   3.083340   3.188181
    29  H    5.112937   5.011379   4.141464   3.097702   3.192309
    30  H    6.336796   5.958124   4.778936   3.723874   4.140985
    31  H    6.400373   6.390577   5.417369   4.101265   3.964647
    32  H    4.605434   3.430422   2.169481   2.672838   3.931315
    33  H    4.534540   3.421388   3.911193   5.397930   6.226675
    34  H    2.595966   2.160231   3.431110   4.720625   5.072698
                    6          7          8          9         10
     6  C    0.000000
     7  C    1.555866   0.000000
     8  O    2.399538   1.419531   0.000000
     9  C    2.607566   1.550837   2.392311   0.000000
    10  C    3.359772   2.600904   3.768102   1.533813   0.000000
    11  O    4.361989   3.758273   4.788133   2.396524   1.358458
    12  O    3.615147   2.943695   4.232362   2.445119   1.227297
    13  C    1.544629   2.648561   3.037186   4.021992   4.749220
    14  C    2.632345   3.029852   3.274621   4.549766   5.186092
    15  O    2.286942   3.648913   4.336226   4.805280   5.186886
    16  C    4.647038   5.952923   6.961581   6.699876   6.487835
    17  C    5.979607   7.233208   8.309267   7.860370   7.463370
    18  Cl   7.322863   8.649181   9.604409   9.410312   9.117386
    19  C    6.459990   7.566535   8.780220   7.952851   7.303856
    20  C    5.789663   6.728212   8.032619   6.912039   6.110972
    21  H    3.326775   3.850178   5.232844   3.769588   2.959662
    22  H    1.092644   2.152682   2.606815   2.817810   3.767495
    23  H    2.187068   1.091359   2.042584   2.174040   2.739598
    24  H    3.229633   1.943990   0.946699   2.589266   3.894872
    25  H    2.744484   2.179693   2.765342   1.090645   2.157600
    26  H    3.515595   2.177809   2.511931   1.089905   2.109916
    27  H    4.985409   4.459466   5.587704   3.221751   1.893527
    28  H    2.182504   3.231567   3.194633   4.561960   5.507816
    29  H    2.870892   3.069289   3.657339   4.451364   4.784620
    30  H    3.553092   4.106812   4.240582   5.629085   6.240853
    31  H    2.973625   2.897065   2.723338   4.427324   5.267367
    32  H    4.626042   6.008322   6.838775   6.945738   6.953987
    33  H    7.537379   8.626932   9.854029   8.968495   8.246850
    34  H    6.506800   7.299921   8.656850   7.289562   6.306134
                   11         12         13         14         15
    11  O    0.000000
    12  O    2.283325   0.000000
    13  C    5.845500   4.754679   0.000000
    14  C    6.453329   4.923867   1.540321   0.000000
    15  O    6.183071   5.041959   1.414004   2.381757   0.000000
    16  C    7.197167   6.107584   4.270369   4.941468   2.879365
    17  C    8.051449   7.006142   5.671727   6.267505   4.283967
    18  Cl   9.744200   8.654188   6.752515   7.258961   5.345314
    19  C    7.725837   6.798753   6.444619   7.042203   5.144100
    20  C    6.441149   5.615970   6.077958   6.709022   4.948923
    21  H    3.458660   2.668141   4.253060   4.950242   3.804808
    22  H    4.514542   4.301937   2.144505   3.467884   2.813033
    23  H    4.062976   2.632598   2.883383   2.735262   3.788762
    24  H    4.905589   4.322783   3.851146   3.808744   5.146611
    25  H    2.504922   3.245769   4.238487   5.069340   4.955043
    26  H    2.768818   2.967916   4.802396   5.127859   5.732817
    27  H    0.945061   2.359017   6.407238   6.950714   6.596466
    28  H    6.521994   5.673138   1.090746   2.169214   2.062038
    29  H    6.094395   4.289139   2.189973   1.090237   2.656628
    30  H    7.499442   5.920187   2.178075   1.089880   2.644810
    31  H    6.549228   5.110216   2.186475   1.089803   3.339962
    32  H    7.759614   6.628422   3.925415   4.569179   2.524494
    33  H    8.596932   7.712624   7.512354   8.075212   6.196130
    34  H    6.463901   5.793385   6.953807   7.559355   5.910644
                   16         17         18         19         20
    16  C    0.000000
    17  C    1.406945   0.000000
    18  Cl   2.716014   1.724901   0.000000
    19  C    2.437428   1.406560   2.716542   0.000000
    20  C    2.813500   2.435936   4.023686   1.407351   0.000000
    21  H    3.868621   4.623891   6.328703   4.354608   3.179273
    22  H    5.065754   6.379728   7.674955   6.876014   6.228589
    23  H    5.961881   7.194727   8.603104   7.498847   6.666610
    24  H    7.725861   9.050811  10.374538   9.463946   8.657055
    25  H    6.787422   7.939650   9.470158   8.041800   7.021453
    26  H    7.742108   8.909814  10.454004   8.991198   7.925369
    27  H    7.279537   7.998541   9.716989   7.519294   6.171033
    28  H    4.873016   6.274162   7.196468   7.157597   6.888874
    29  H    4.754963   5.984354   7.084626   6.608823   6.189242
    30  H    4.973991   6.246085   7.000133   7.177893   7.052038
    31  H    6.001743   7.338327   8.345343   8.073776   7.658763
    32  H    1.080400   2.149537   2.845039   3.408933   3.893774
    33  H    3.415685   2.159863   2.864248   1.080090   2.161059
    34  H    3.893874   3.413321   4.874700   2.158331   1.080380
                   21         22         23         24         25
    21  H    0.000000
    22  H    3.834622   0.000000
    23  H    3.899176   3.061876   0.000000
    24  H    5.758907   3.509274   2.233945   0.000000
    25  H    3.972877   2.524616   3.067311   3.137997   0.000000
    26  H    4.760776   3.692733   2.605766   2.317341   1.745467
    27  H    3.422313   5.231076   4.607284   5.687833   3.415409
    28  H    5.154135   2.290034   3.659053   4.057030   4.601527
    29  H    4.451984   3.888229   2.454686   4.060801   5.127715
    30  H    5.718521   4.284747   3.811185   4.764948   6.103530
    31  H    5.606036   3.704778   2.596816   3.091044   5.000244
    32  H    4.599961   5.000978   6.046515   7.637641   7.020617
    33  H    5.300936   7.939429   8.537911  10.528147   9.050518
    34  H    3.531313   6.934266   7.218010   9.222617   7.402655
                   26         27         28         29         30
    26  H    0.000000
    27  H    3.589068   0.000000
    28  H    5.262648   7.167266   0.000000
    29  H    5.039578   6.470961   3.083205   0.000000
    30  H    6.209150   7.968187   2.511554   1.760109   0.000000
    31  H    4.792284   7.125221   2.520162   1.765025   1.755992
    32  H    7.958830   7.947104   4.359235   4.576393   4.414210
    33  H    9.999217   8.318180   8.211390   7.617037   8.165973
    34  H    8.256647   6.050229   7.797199   6.968171   7.971615
                   31         32         33         34
    31  H    0.000000
    32  H    5.633425   0.000000
    33  H    9.114825   4.298391   0.000000
    34  H    8.460489   4.974124   2.485081   0.000000
 Stoichiometry    C13H14ClNO5
 Framework group  C1[X(C13H14ClNO5)]
 Deg. of freedom    96
 Full point group                 C1      NOp   1
 Largest Abelian subgroup         C1      NOp   1
 Largest concise Abelian subgroup C1      NOp   1
                         Standard orientation:                         
 ---------------------------------------------------------------------
 Center     Atomic      Atomic             Coordinates (Angstroms)
 Number     Number       Type             X           Y           Z
 ---------------------------------------------------------------------
      1          8           0       -0.403228    2.316471    0.102205
      2          6           0       -1.535660    1.553843    0.048356
      3          6           0       -1.496546    0.141906   -0.133372
      4          6           0       -0.234735   -0.630610   -0.295999
      5          7           0        0.901928   -0.094947   -0.453833
      6          6           0        1.879382   -1.131893   -0.643200
      7          6           0        3.234296   -0.813636    0.052241
      8          8           0        4.130547   -1.869124   -0.260408
      9          6           0        3.896149    0.506168   -0.422274
     10          6           0        3.321170    1.781191    0.207247
     11          8           0        3.589331    2.879774   -0.545489
     12          8           0        2.720462    1.813392    1.277000
     13          6           0        1.143994   -2.419004   -0.209116
     14          6           0        1.409346   -2.932347    1.218699
     15          8           0       -0.203858   -1.994802   -0.261622
     16          6           0       -2.710057   -0.580399   -0.165847
     17          6           0       -3.942724    0.082924   -0.024328
     18         17           0       -5.414046   -0.816282   -0.068202
     19          6           0       -3.976181    1.477980    0.152049
     20          6           0       -2.774713    2.209953    0.188464
     21          1           0        0.367526    1.756281    0.020255
     22          1           0        2.071682   -1.207702   -1.716114
     23          1           0        3.104383   -0.787216    1.135518
     24          1           0        4.910738   -1.774043    0.267323
     25          1           0        3.840955    0.581274   -1.508929
     26          1           0        4.956085    0.501496   -0.168491
     27          1           0        3.219515    3.642199   -0.127057
     28          1           0        1.314099   -3.220430   -0.929190
     29          1           0        1.240271   -2.153440    1.962563
     30          1           0        0.748562   -3.765862    1.456302
     31          1           0        2.433524   -3.288510    1.327681
     32          1           0       -2.704656   -1.652134   -0.302303
     33          1           0       -4.922955    1.986318    0.260708
     34          1           0       -2.802834    3.281045    0.326994
 ---------------------------------------------------------------------
 Rotational constants (GHZ):      0.5407444      0.1691075      0.1343018
 Standard basis: 6-31+G(d,p) (6D, 7F)
 There are   454 symmetry adapted basis functions of A   symmetry.
 Integral buffers will be    131072 words long.
 Raffenetti 2 integral format.
 Two-electron integral symmetry is turned on.
   454 basis functions,   762 primitive gaussians,   454 cartesian basis functions
    78 alpha electrons       78 beta electrons
       nuclear repulsion energy      1696.3118004689 Hartrees.
 NAtoms=   34 NActive=   34 NUniq=   34 SFac= 1.00D+00 NAtFMM=   50 NAOKFM=F Big=F
 Using the following non-standard input for PCM:
 radii=UA0
 --- end of non-standard input.
 ------------------------------------------------------------------------------
 United Atom Topological Model (UA0  parameters set).
  Nord Group  Hybr  Charge Alpha Radius          Bonded to
    1   OH    *     0.00   1.10  1.850   C2   [s]
    2   C     *     0.00   1.10  1.925   O1   [s]  C3   [s]  C20  [s]
    3   C     *     0.00   1.10  1.925   C2   [s]  C4   [s]  C16  [s]
    4   C     *     0.00   1.10  1.925   C3   [s]  N5   [d]  O15  [s]
    5   N     *     0.00   1.10  1.830   C4   [d]  C6   [s]
    6   CH    *     0.00   1.10  2.125   N5   [s]  C7   [s]  C13  [s]
    7   CH    *     0.00   1.10  2.125   C6   [s]  O8   [s]  C9   [s]
    8   OH    *     0.00   1.10  1.850   C7   [s]
    9   CH2   *     0.00   1.10  2.325   C7   [s]  C10  [s]
   10   C     *     0.00   1.10  1.925   C9   [s]  O11  [s]  O12  [d]
   11   OH    *     0.00   1.10  1.850   C10  [s]
   12   O     *     0.00   1.10  1.750   C10  [d]
   13   CH    *     0.00   1.10  2.125   C6   [s]  C14  [s]  O15  [s]
   14   CH3   *     0.00   1.10  2.525   C13  [s]
   15   O     *     0.00   1.10  1.750   C4   [s]  C13  [s]
   16   CH    *     0.00   1.10  2.125   C3   [s]  C17  [s]
   17   C     *     0.00   1.10  1.925   C16  [s] Cl18  [s]  C19  [s]
   18  Cl     *     0.00   1.10  1.973   C17  [s]
   19   CH    *     0.00   1.10  2.125   C17  [s]  C20  [s]
   20   CH    *     0.00   1.10  2.125   C2   [s]  C19  [s]
 ------------------------------------------------------------------------------
 Polarizable Continuum Model (PCM)
 =================================
 Model                : PCM.
 Atomic radii         : UA0 (Simple United Atom Topological Model).
 Polarization charges : Total charges.
 Charge compensation  : None.
 Solution method      : Matrix inversion.
 Cavity type          : Scaled VdW (van der Waals Surface) (Alpha=1.100).
 Cavity algorithm     : GePol (No added spheres)
                        Default sphere list used, NSphG=   20.
                        Lebedev-Laikov grids with approx.  5.0 points / Ang**2.
                        Smoothing algorithm: Karplus/York (Gamma=1.0000).
                        Polarization charges: spherical gaussians, with
                                              point-specific exponents (IZeta= 3).
                        Self-potential: point-specific (ISelfS= 7).
                        Self-field    : sphere-specific E.n sum rule (ISelfD= 2).
 1st derivatives      : Analytical E(r).r(x)/FMM algorithm (CHGder, D1EAlg=3).
                        Cavity 1st derivative terms included.
 Solvent              : Methanol, Eps=  32.613000 Eps(inf)=   1.765709
 ------------------------------------------------------------------------------
 Spheres list:
 ISph  on   Nord    Re0     Alpha      Xe            Ye            Ze
    1   O      1    1.850   1.100     -0.403228      2.316471      0.102205
    2   C      2    1.925   1.100     -1.535660      1.553843      0.048356
    3   C      3    1.925   1.100     -1.496546      0.141906     -0.133372
    4   C      4    1.925   1.100     -0.234735     -0.630610     -0.295999
    5   N      5    1.830   1.100      0.901928     -0.094947     -0.453833
    6   C      6    2.125   1.100      1.879382     -1.131893     -0.643200
    7   C      7    2.125   1.100      3.234296     -0.813636      0.052241
    8   O      8    1.850   1.100      4.130547     -1.869124     -0.260408
    9   C      9    2.325   1.100      3.896149      0.506168     -0.422274
   10   C     10    1.925   1.100      3.321170      1.781191      0.207247
   11   O     11    1.850   1.100      3.589331      2.879774     -0.545489
   12   O     12    1.750   1.100      2.720462      1.813392      1.277000
   13   C     13    2.125   1.100      1.143994     -2.419004     -0.209116
   14   C     14    2.525   1.100      1.409346     -2.932347      1.218699
   15   O     15    1.750   1.100     -0.203858     -1.994802     -0.261622
   16   C     16    2.125   1.100     -2.710057     -0.580399     -0.165847
   17   C     17    1.925   1.100     -3.942724      0.082924     -0.024328
   18  Cl     18    1.973   1.100     -5.414046     -0.816282     -0.068202
   19   C     19    2.125   1.100     -3.976181      1.477980      0.152049
   20   C     20    2.125   1.100     -2.774713      2.209953      0.188464
 ------------------------------------------------------------------------------
 One-electron integrals computed using PRISM.
 NBasis=   454 RedAO= T  NBF=   454
 NBsUse=   453 1.00D-06 NBFU=   453
 Harris functional with IExCor= 1009 diagonalized for initial guess.
 ExpMin= 4.38D-02 ExpMax= 2.52D+04 ExpMxC= 3.78D+03 IAcc=3 IRadAn=         5 AccDes= 0.00D+00
 HarFok:  IExCor= 1009 AccDes= 0.00D+00 IRadAn=         5 IDoV= 1
 ScaDFX=  1.000000  1.000000  1.000000  1.000000
 FoFCou: FMM=F IPFlag=           0 FMFlag=      100000 FMFlg1=           0
         NFxFlg=           0 DoJE=T BraDBF=F KetDBF=T FulRan=T
         Omega=  0.000000  0.000000  1.000000  0.000000  0.000000 ICntrl=     500 IOpCl=  0
         NMat0=    1 NMatS0=    1 NMatT0=    0 NMatD0=    1 NMtDS0=    0 NMtDT0=    0
         I1Cent=           4 NGrid=           0.
 Petite list used in FoFCou.
 Initial guess orbital symmetries:
       Occupied  (A) (A) (A) (A) (A) (A) (A) (A) (A) (A) (A) (A)
                 (A) (A) (A) (A) (A) (A) (A) (A) (A) (A) (A) (A)
                 (A) (A) (A) (A) (A) (A) (A) (A) (A) (A) (A) (A)
                 (A) (A) (A) (A) (A) (A) (A) (A) (A) (A) (A) (A)
                 (A) (A) (A) (A) (A) (A) (A) (A) (A) (A) (A) (A)
                 (A) (A) (A) (A) (A) (A) (A) (A) (A) (A) (A) (A)
                 (A) (A) (A) (A) (A) (A)
       Virtual   (A) (A) (A) (A) (A) (A) (A) (A) (A) (A) (A) (A)
                 (A) (A) (A) (A) (A) (A) (A) (A) (A) (A) (A) (A)
                 (A) (A) (A) (A) (A) (A) (A) (A) (A) (A) (A) (A)
                 (A) (A) (A) (A) (A) (A) (A) (A) (A) (A) (A) (A)
                 (A) (A) (A) (A) (A) (A) (A) (A) (A) (A) (A) (A)
                 (A) (A) (A) (A) (A) (A) (A) (A) (A) (A) (A) (A)
                 (A) (A) (A) (A) (A) (A) (A) (A) (A) (A) (A) (A)
                 (A) (A) (A) (A) (A) (A) (A) (A) (A) (A) (A) (A)
                 (A) (A) (A) (A) (A) (A) (A) (A) (A) (A) (A) (A)
                 (A) (A) (A) (A) (A) (A) (A) (A) (A) (A) (A) (A)
                 (A) (A) (A) (A) (A) (A) (A) (A) (A) (A) (A) (A)
                 (A) (A) (A) (A) (A) (A) (A) (A) (A) (A) (A) (A)
                 (A) (A) (A) (A) (A) (A) (A) (A) (A) (A) (A) (A)
                 (A) (A) (A) (A) (A) (A) (A) (A) (A) (A) (A) (A)
                 (A) (A) (A) (A) (A) (A) (A) (A) (A) (A) (A) (A)
                 (A) (A) (A) (A) (A) (A) (A) (A) (A) (A) (A) (A)
                 (A) (A) (A) (A) (A) (A) (A) (A) (A) (A) (A) (A)
                 (A) (A) (A) (A) (A) (A) (A) (A) (A) (A) (A) (A)
                 (A) (A) (A) (A) (A) (A) (A) (A) (A) (A) (A) (A)
                 (A) (A) (A) (A) (A) (A) (A) (A) (A) (A) (A) (A)
                 (A) (A) (A) (A) (A) (A) (A) (A) (A) (A) (A) (A)
                 (A) (A) (A) (A) (A) (A) (A) (A) (A) (A) (A) (A)
                 (A) (A) (A) (A) (A) (A) (A) (A) (A) (A) (A) (A)
                 (A) (A) (A) (A) (A) (A) (A) (A) (A) (A) (A) (A)
                 (A) (A) (A) (A) (A) (A) (A) (A) (A) (A) (A) (A)
                 (A) (A) (A) (A) (A) (A) (A) (A) (A) (A) (A) (A)
                 (A) (A) (A) (A) (A) (A) (A) (A) (A) (A) (A) (A)
                 (A) (A) (A) (A) (A) (A) (A) (A) (A) (A) (A) (A)
                 (A) (A) (A) (A) (A) (A) (A) (A) (A) (A) (A) (A)
                 (A) (A) (A) (A) (A) (A) (A) (A) (A) (A) (A) (A)
                 (A) (A) (A) (A) (A) (A) (A) (A) (A) (A) (A) (A)
                 (A) (A) (A)
 The electronic state of the initial guess is 1-A.
 Requested convergence on RMS density matrix=1.00D-08 within 128 cycles.
 Requested convergence on MAX density matrix=1.00D-06.
 Requested convergence on             energy=1.00D-06.
 No special actions if energy rises.
 Error on total polarization charges =  0.01488
 SCF Done:  E(RM062X) =  -1394.56311499     A.U. after   16 cycles
             Convg  =    0.3793D-08             -V/T =  2.0067

 **********************************************************************

            Population analysis using the SCF density.

 **********************************************************************

 Orbital symmetries:
       Occupied  (A) (A) (A) (A) (A) (A) (A) (A) (A) (A) (A) (A)
                 (A) (A) (A) (A) (A) (A) (A) (A) (A) (A) (A) (A)
                 (A) (A) (A) (A) (A) (A) (A) (A) (A) (A) (A) (A)
                 (A) (A) (A) (A) (A) (A) (A) (A) (A) (A) (A) (A)
                 (A) (A) (A) (A) (A) (A) (A) (A) (A) (A) (A) (A)
                 (A) (A) (A) (A) (A) (A) (A) (A) (A) (A) (A) (A)
                 (A) (A) (A) (A) (A) (A)
       Virtual   (A) (A) (A) (A) (A) (A) (A) (A) (A) (A) (A) (A)
                 (A) (A) (A) (A) (A) (A) (A) (A) (A) (A) (A) (A)
                 (A) (A) (A) (A) (A) (A) (A) (A) (A) (A) (A) (A)
                 (A) (A) (A) (A) (A) (A) (A) (A) (A) (A) (A) (A)
                 (A) (A) (A) (A) (A) (A) (A) (A) (A) (A) (A) (A)
                 (A) (A) (A) (A) (A) (A) (A) (A) (A) (A) (A) (A)
                 (A) (A) (A) (A) (A) (A) (A) (A) (A) (A) (A) (A)
                 (A) (A) (A) (A) (A) (A) (A) (A) (A) (A) (A) (A)
                 (A) (A) (A) (A) (A) (A) (A) (A) (A) (A) (A) (A)
                 (A) (A) (A) (A) (A) (A) (A) (A) (A) (A) (A) (A)
                 (A) (A) (A) (A) (A) (A) (A) (A) (A) (A) (A) (A)
                 (A) (A) (A) (A) (A) (A) (A) (A) (A) (A) (A) (A)
                 (A) (A) (A) (A) (A) (A) (A) (A) (A) (A) (A) (A)
                 (A) (A) (A) (A) (A) (A) (A) (A) (A) (A) (A) (A)
                 (A) (A) (A) (A) (A) (A) (A) (A) (A) (A) (A) (A)
                 (A) (A) (A) (A) (A) (A) (A) (A) (A) (A) (A) (A)
                 (A) (A) (A) (A) (A) (A) (A) (A) (A) (A) (A) (A)
                 (A) (A) (A) (A) (A) (A) (A) (A) (A) (A) (A) (A)
                 (A) (A) (A) (A) (A) (A) (A) (A) (A) (A) (A) (A)
                 (A) (A) (A) (A) (A) (A) (A) (A) (A) (A) (A) (A)
                 (A) (A) (A) (A) (A) (A) (A) (A) (A) (A) (A) (A)
                 (A) (A) (A) (A) (A) (A) (A) (A) (A) (A) (A) (A)
                 (A) (A) (A) (A) (A) (A) (A) (A) (A) (A) (A) (A)
                 (A) (A) (A) (A) (A) (A) (A) (A) (A) (A) (A) (A)
                 (A) (A) (A) (A) (A) (A) (A) (A) (A) (A) (A) (A)
                 (A) (A) (A) (A) (A) (A) (A) (A) (A) (A) (A) (A)
                 (A) (A) (A) (A) (A) (A) (A) (A) (A) (A) (A) (A)
                 (A) (A) (A) (A) (A) (A) (A) (A) (A) (A) (A) (A)
                 (A) (A) (A) (A) (A) (A) (A) (A) (A) (A) (A) (A)
                 (A) (A) (A) (A) (A) (A) (A) (A) (A) (A) (A) (A)
                 (A) (A) (A) (A) (A) (A) (A) (A) (A) (A) (A) (A)
                 (A) (A) (A)
 The electronic state is 1-A.
 Alpha  occ. eigenvalues -- -102.68228 -19.70128 -19.69623 -19.68110 -19.65661
 Alpha  occ. eigenvalues --  -19.65504 -14.76958 -10.71015 -10.67266 -10.64783
 Alpha  occ. eigenvalues --  -10.62581 -10.62142 -10.62006 -10.59841 -10.59587
 Alpha  occ. eigenvalues --  -10.58754 -10.58518 -10.57500 -10.57356 -10.54450
 Alpha  occ. eigenvalues --   -9.82911  -7.55313  -7.54653  -7.54643  -1.24191
 Alpha  occ. eigenvalues --   -1.24132  -1.19516  -1.16425  -1.14991  -1.04334
 Alpha  occ. eigenvalues --   -1.00818  -0.95314  -0.91811  -0.88372  -0.86646
 Alpha  occ. eigenvalues --   -0.83456  -0.81021  -0.77063  -0.73473  -0.71906
 Alpha  occ. eigenvalues --   -0.69775  -0.67635  -0.67127  -0.63221  -0.62463
 Alpha  occ. eigenvalues --   -0.60027  -0.59039  -0.58352  -0.57511  -0.57205
 Alpha  occ. eigenvalues --   -0.55541  -0.54541  -0.53959  -0.51906  -0.51612
 Alpha  occ. eigenvalues --   -0.50793  -0.50103  -0.48771  -0.48596  -0.48202
 Alpha  occ. eigenvalues --   -0.46737  -0.46144  -0.45903  -0.45468  -0.45062
 Alpha  occ. eigenvalues --   -0.44448  -0.43654  -0.42841  -0.40742  -0.40397
 Alpha  occ. eigenvalues --   -0.38925  -0.38785  -0.37489  -0.36363  -0.35561
 Alpha  occ. eigenvalues --   -0.34246  -0.31567  -0.28544
 Alpha virt. eigenvalues --   -0.02956   0.00553   0.00914   0.01506   0.01971
 Alpha virt. eigenvalues --    0.02583   0.02881   0.03393   0.03731   0.04279
 Alpha virt. eigenvalues --    0.04811   0.04969   0.05486   0.05737   0.06404
 Alpha virt. eigenvalues --    0.06618   0.06992   0.07321   0.07903   0.08260
 Alpha virt. eigenvalues --    0.08347   0.08519   0.09234   0.09928   0.10297
 Alpha virt. eigenvalues --    0.10540   0.11446   0.11563   0.11976   0.12660
 Alpha virt. eigenvalues --    0.12985   0.13445   0.13600   0.14028   0.14502
 Alpha virt. eigenvalues --    0.15152   0.15187   0.15806   0.16344   0.16912
 Alpha virt. eigenvalues --    0.16989   0.17420   0.17639   0.18218   0.18252
 Alpha virt. eigenvalues --    0.18791   0.19250   0.19476   0.20337   0.20429
 Alpha virt. eigenvalues --    0.20569   0.21427   0.21774   0.22005   0.22360
 Alpha virt. eigenvalues --    0.22542   0.22708   0.23122   0.23542   0.23900
 Alpha virt. eigenvalues --    0.24393   0.24740   0.24885   0.25358   0.25505
 Alpha virt. eigenvalues --    0.26339   0.26585   0.27048   0.27384   0.27665
 Alpha virt. eigenvalues --    0.27951   0.28061   0.28740   0.28830   0.29454
 Alpha virt. eigenvalues --    0.29833   0.30210   0.30252   0.30891   0.31117
 Alpha virt. eigenvalues --    0.32031   0.32070   0.32384   0.33090   0.33771
 Alpha virt. eigenvalues --    0.34349   0.34511   0.35001   0.35394   0.35793
 Alpha virt. eigenvalues --    0.35965   0.36260   0.37095   0.37452   0.37901
 Alpha virt. eigenvalues --    0.38586   0.38956   0.40377   0.40467   0.41180
 Alpha virt. eigenvalues --    0.41566   0.41876   0.42596   0.43054   0.43396
 Alpha virt. eigenvalues --    0.44340   0.45385   0.45990   0.47739   0.48054
 Alpha virt. eigenvalues --    0.48955   0.49641   0.51029   0.51776   0.54641
 Alpha virt. eigenvalues --    0.54945   0.58641   0.59457   0.60618   0.64469
 Alpha virt. eigenvalues --    0.67855   0.68390   0.68693   0.69557   0.70625
 Alpha virt. eigenvalues --    0.71293   0.71422   0.73281   0.74189   0.74555
 Alpha virt. eigenvalues --    0.75836   0.75983   0.76788   0.77354   0.78379
 Alpha virt. eigenvalues --    0.78502   0.80140   0.80821   0.81180   0.81850
 Alpha virt. eigenvalues --    0.82099   0.83366   0.84398   0.85292   0.86828
 Alpha virt. eigenvalues --    0.87480   0.88347   0.89034   0.91681   0.91827
 Alpha virt. eigenvalues --    0.93249   0.93887   0.95177   0.96134   0.97386
 Alpha virt. eigenvalues --    0.98953   0.99304   0.99623   1.01475   1.03148
 Alpha virt. eigenvalues --    1.03862   1.04888   1.05834   1.06460   1.07325
 Alpha virt. eigenvalues --    1.08294   1.09460   1.10774   1.11763   1.12819
 Alpha virt. eigenvalues --    1.13052   1.14334   1.14854   1.15574   1.16142
 Alpha virt. eigenvalues --    1.17260   1.18369   1.19639   1.20821   1.21576
 Alpha virt. eigenvalues --    1.21910   1.22596   1.23718   1.25073   1.26118
 Alpha virt. eigenvalues --    1.26951   1.27541   1.27737   1.29285   1.30558
 Alpha virt. eigenvalues --    1.31342   1.32318   1.33948   1.35830   1.35913
 Alpha virt. eigenvalues --    1.36593   1.37556   1.38378   1.39311   1.40404
 Alpha virt. eigenvalues --    1.41368   1.41734   1.42105   1.42834   1.43815
 Alpha virt. eigenvalues --    1.43958   1.44607   1.45979   1.47144   1.47702
 Alpha virt. eigenvalues --    1.47859   1.49319   1.50445   1.51087   1.52880
 Alpha virt. eigenvalues --    1.56318   1.56810   1.57905   1.58321   1.58999
 Alpha virt. eigenvalues --    1.62860   1.63358   1.65404   1.66395   1.66542
 Alpha virt. eigenvalues --    1.68582   1.70140   1.71580   1.72896   1.75542
 Alpha virt. eigenvalues --    1.75875   1.77563   1.79194   1.80513   1.81225
 Alpha virt. eigenvalues --    1.81714   1.83208   1.83944   1.85223   1.86180
 Alpha virt. eigenvalues --    1.87894   1.90089   1.90573   1.93377   1.94752
 Alpha virt. eigenvalues --    1.95205   1.96709   1.96760   1.97547   1.98442
 Alpha virt. eigenvalues --    1.99150   2.01016   2.01556   2.02213   2.03353
 Alpha virt. eigenvalues --    2.04083   2.06154   2.07522   2.08011   2.09089
 Alpha virt. eigenvalues --    2.10013   2.10470   2.11608   2.11748   2.14202
 Alpha virt. eigenvalues --    2.16647   2.16917   2.19374   2.21271   2.21665
 Alpha virt. eigenvalues --    2.24787   2.25889   2.26837   2.27103   2.28611
 Alpha virt. eigenvalues --    2.29215   2.30732   2.32699   2.36412   2.37702
 Alpha virt. eigenvalues --    2.40224   2.41116   2.41798   2.42421   2.43408
 Alpha virt. eigenvalues --    2.44576   2.46365   2.47499   2.48018   2.48919
 Alpha virt. eigenvalues --    2.51144   2.51650   2.53071   2.53530   2.54350
 Alpha virt. eigenvalues --    2.56297   2.57311   2.57779   2.58718   2.59865
 Alpha virt. eigenvalues --    2.60955   2.62353   2.63690   2.65088   2.66590
 Alpha virt. eigenvalues --    2.68528   2.68834   2.69690   2.70883   2.71802
 Alpha virt. eigenvalues --    2.74114   2.74555   2.75182   2.75856   2.76826
 Alpha virt. eigenvalues --    2.77427   2.79991   2.80364   2.81855   2.84463
 Alpha virt. eigenvalues --    2.84816   2.86130   2.89817   2.90200   2.91239
 Alpha virt. eigenvalues --    2.91921   2.95328   2.97324   3.02011   3.02801
 Alpha virt. eigenvalues --    3.04636   3.05377   3.07523   3.09546   3.10805
 Alpha virt. eigenvalues --    3.14084   3.15162   3.20647   3.24154   3.25567
 Alpha virt. eigenvalues --    3.27452   3.32613   3.35331   3.38920   3.39466
 Alpha virt. eigenvalues --    3.42003   3.46869   3.47623   3.49932   3.50820
 Alpha virt. eigenvalues --    3.55151   3.57756   3.61670   3.66948   3.77566
 Alpha virt. eigenvalues --    4.27755   4.30203   4.31364   4.32361   4.36518
 Alpha virt. eigenvalues --    4.36839   4.41256   4.43215   4.46121   4.49035
 Alpha virt. eigenvalues --    4.50846   4.56342   4.59397   4.63918   4.69080
 Alpha virt. eigenvalues --    4.71071   4.74472   4.78684   4.88306   4.99268
          Condensed to atoms (all electrons):
              1          2          3          4          5          6
     1  O    8.463722   0.344090   0.384156  -0.188243  -0.009890   0.016598
     2  C    0.344090  17.081605  -4.454249   0.772835  -0.086154  -0.440039
     3  C    0.384156  -4.454249  15.194892  -2.294825  -0.383947   0.402342
     4  C   -0.188243   0.772835  -2.294825   8.820882   0.699090  -0.811857
     5  N   -0.009890  -0.086154  -0.383947   0.699090   7.402499  -0.684837
     6  C    0.016598  -0.440039   0.402342  -0.811857  -0.684837  10.617373
     7  C   -0.013553   0.128043  -0.247494  -0.123129  -0.103509  -0.526069
     8  O    0.000115  -0.000433   0.003578   0.052942   0.015775  -0.255813
     9  C   -0.014091   0.096708  -0.164144   0.188655   0.084581  -0.480670
    10  C    0.038182  -0.175224   0.324662  -0.245105   0.007990   0.187069
    11  O   -0.000794  -0.001779  -0.007870   0.006549  -0.005325   0.008327
    12  O    0.003054   0.010056   0.003721  -0.023607  -0.015639  -0.023651
    13  C   -0.007821   0.282475  -0.364843   0.295974   0.403526  -2.136133
    14  C    0.000597  -0.034612   0.061102  -0.133284   0.012236  -0.021756
    15  O   -0.004360  -0.052914  -0.220090   0.297042  -0.175180   0.028837
    16  C    0.194373  -2.686029   1.939431  -4.036348   0.040889  -0.148333
    17  C   -0.031267  -1.289039  -1.734657   1.112065   0.074696   0.045769
    18  Cl  -0.000146  -0.022545   0.021583   0.014226   0.000254   0.000811
    19  C    0.047932   0.550297  -0.302716   0.099434  -0.001222  -0.036633
    20  C   -0.859481  -3.717939  -2.038584   0.953537   0.004329  -0.074590
    21  H    0.180897   0.054516  -0.174966   0.036059   0.064202   0.005724
    22  H    0.000033   0.014897  -0.028766   0.037169   0.004437   0.200973
    23  H    0.000068   0.006965  -0.009112   0.024671   0.025029  -0.074976
    24  H    0.000001  -0.000126   0.000271  -0.005460  -0.000294   0.052582
    25  H   -0.000036   0.006452  -0.011892   0.010723  -0.004480   0.007933
    26  H    0.000011  -0.000858   0.002548  -0.003580   0.002476   0.014539
    27  H    0.000033  -0.000387   0.000004   0.000005  -0.000133  -0.002809
    28  H    0.000006  -0.003311   0.014617   0.021235   0.007151  -0.035199
    29  H   -0.000002  -0.002640   0.009156  -0.006892   0.011200  -0.030871
    30  H   -0.000002   0.001929   0.001778   0.004498  -0.003622   0.064119
    31  H    0.000001  -0.000805  -0.000606  -0.006653  -0.008748   0.043596
    32  H   -0.000463   0.027071  -0.004899   0.066795   0.000111   0.006600
    33  H   -0.000391  -0.049524   0.005241  -0.008389   0.000053  -0.000052
    34  H   -0.003854   0.044167   0.020995  -0.000994   0.000369   0.000150
              7          8          9         10         11         12
     1  O   -0.013553   0.000115  -0.014091   0.038182  -0.000794   0.003054
     2  C    0.128043  -0.000433   0.096708  -0.175224  -0.001779   0.010056
     3  C   -0.247494   0.003578  -0.164144   0.324662  -0.007870   0.003721
     4  C   -0.123129   0.052942   0.188655  -0.245105   0.006549  -0.023607
     5  N   -0.103509   0.015775   0.084581   0.007990  -0.005325  -0.015639
     6  C   -0.526069  -0.255813  -0.480670   0.187069   0.008327  -0.023651
     7  C    7.274881   0.243294  -0.350397  -0.430236   0.067232   0.133232
     8  O    0.243294   8.316155  -0.052981   0.024419  -0.001443  -0.001478
     9  C   -0.350397  -0.052981   7.033608  -0.351000  -0.254093  -0.230889
    10  C   -0.430236   0.024419  -0.351000   5.504504   0.293638   0.525358
    11  O    0.067232  -0.001443  -0.254093   0.293638   8.236467  -0.144061
    12  O    0.133232  -0.001478  -0.230889   0.525358  -0.144061   8.202294
    13  C   -0.098898   0.057835   0.125324  -0.014846   0.000474  -0.002881
    14  C   -0.076778  -0.055531  -0.054048   0.014539  -0.000210   0.002659
    15  O    0.049003   0.000425  -0.005258   0.001461  -0.000025   0.000063
    16  C   -0.120594  -0.000541  -0.025136   0.079858  -0.001382  -0.001091
    17  C    0.015904  -0.000157   0.003965  -0.008929   0.000137  -0.000262
    18  Cl   0.000123   0.000000  -0.000028   0.000044   0.000000   0.000000
    19  C   -0.006504   0.000010  -0.000897   0.004960   0.000048  -0.000517
    20  C    0.034439  -0.000123   0.029427  -0.067620   0.001618   0.003084
    21  H    0.001319  -0.000002   0.002002  -0.002920  -0.000522   0.007116
    22  H   -0.017946   0.007604  -0.025198   0.000583  -0.000053  -0.000851
    23  H    0.293999  -0.046711   0.012616  -0.013245  -0.000079   0.000265
    24  H    0.004747   0.263436  -0.059828   0.008527  -0.000010   0.000182
    25  H   -0.058640   0.002753   0.432275  -0.064711   0.003247   0.005412
    26  H   -0.029559  -0.004530   0.332137   0.015863  -0.000013  -0.000437
    27  H   -0.006841   0.000032   0.034163  -0.007099   0.246307   0.004627
    28  H   -0.022790  -0.000496   0.006603   0.000796  -0.000002   0.000018
    29  H   -0.020378   0.000356   0.009494   0.000764  -0.000004  -0.000105
    30  H   -0.005242   0.000151  -0.001096  -0.000191   0.000000   0.000003
    31  H    0.009158   0.000561   0.000850   0.000038   0.000000   0.000043
    32  H    0.000135   0.000000  -0.000020   0.000013   0.000000   0.000000
    33  H   -0.000003   0.000000   0.000000   0.000002   0.000000   0.000000
    34  H    0.000000   0.000000  -0.000001  -0.000065   0.000002   0.000001
             13         14         15         16         17         18
     1  O   -0.007821   0.000597  -0.004360   0.194373  -0.031267  -0.000146
     2  C    0.282475  -0.034612  -0.052914  -2.686029  -1.289039  -0.022545
     3  C   -0.364843   0.061102  -0.220090   1.939431  -1.734657   0.021583
     4  C    0.295974  -0.133284   0.297042  -4.036348   1.112065   0.014226
     5  N    0.403526   0.012236  -0.175180   0.040889   0.074696   0.000254
     6  C   -2.136133  -0.021756   0.028837  -0.148333   0.045769   0.000811
     7  C   -0.098898  -0.076778   0.049003  -0.120594   0.015904   0.000123
     8  O    0.057835  -0.055531   0.000425  -0.000541  -0.000157   0.000000
     9  C    0.125324  -0.054048  -0.005258  -0.025136   0.003965  -0.000028
    10  C   -0.014846   0.014539   0.001461   0.079858  -0.008929   0.000044
    11  O    0.000474  -0.000210  -0.000025  -0.001382   0.000137   0.000000
    12  O   -0.002881   0.002659   0.000063  -0.001091  -0.000262   0.000000
    13  C    7.409160  -0.016199  -0.029206  -0.131091   0.042113  -0.000171
    14  C   -0.016199   5.580381  -0.119896   0.036061  -0.005949   0.000250
    15  O   -0.029206  -0.119896   8.529050  -0.062653   0.095375  -0.000750
    16  C   -0.131091   0.036061  -0.062653  19.039865  -3.214959  -0.155907
    17  C    0.042113  -0.005949   0.095375  -3.214959   9.241398  -0.082801
    18  Cl  -0.000171   0.000250  -0.000750  -0.155907  -0.082801  17.025661
    19  C    0.023260  -0.002129  -0.000193  -1.447988   0.700190  -0.119413
    20  C    0.036934   0.003024   0.008708  -3.292498   1.117841   0.093559
    21  H   -0.005069  -0.000110   0.001942  -0.045289   0.007983   0.000013
    22  H    0.064746   0.015188   0.003630  -0.000661   0.000762   0.000005
    23  H    0.031219   0.016782  -0.003060   0.000368  -0.000075   0.000000
    24  H   -0.009886   0.006577   0.000021   0.000002   0.000002   0.000000
    25  H    0.000548   0.001216  -0.000163  -0.000933   0.000006   0.000000
    26  H    0.002794   0.000130   0.000016   0.000060  -0.000008   0.000000
    27  H    0.000248   0.000004  -0.000001  -0.000020   0.000005   0.000000
    28  H    0.397108  -0.044121  -0.046934   0.009316  -0.001173   0.000004
    29  H   -0.029177   0.400751   0.000321   0.016048  -0.000284   0.000017
    30  H   -0.090048   0.408427  -0.002584  -0.012445  -0.000399  -0.000006
    31  H   -0.107874   0.419929   0.010865  -0.000997   0.000022  -0.000001
    32  H   -0.000640  -0.000103   0.004368   0.208033  -0.007871  -0.003180
    33  H   -0.000021  -0.000004   0.000006   0.121986   0.091073  -0.007508
    34  H   -0.000024   0.000003   0.000013   0.003012  -0.005913   0.000943
             19         20         21         22         23         24
     1  O    0.047932  -0.859481   0.180897   0.000033   0.000068   0.000001
     2  C    0.550297  -3.717939   0.054516   0.014897   0.006965  -0.000126
     3  C   -0.302716  -2.038584  -0.174966  -0.028766  -0.009112   0.000271
     4  C    0.099434   0.953537   0.036059   0.037169   0.024671  -0.005460
     5  N   -0.001222   0.004329   0.064202   0.004437   0.025029  -0.000294
     6  C   -0.036633  -0.074590   0.005724   0.200973  -0.074976   0.052582
     7  C   -0.006504   0.034439   0.001319  -0.017946   0.293999   0.004747
     8  O    0.000010  -0.000123  -0.000002   0.007604  -0.046711   0.263436
     9  C   -0.000897   0.029427   0.002002  -0.025198   0.012616  -0.059828
    10  C    0.004960  -0.067620  -0.002920   0.000583  -0.013245   0.008527
    11  O    0.000048   0.001618  -0.000522  -0.000053  -0.000079  -0.000010
    12  O   -0.000517   0.003084   0.007116  -0.000851   0.000265   0.000182
    13  C    0.023260   0.036934  -0.005069   0.064746   0.031219  -0.009886
    14  C   -0.002129   0.003024  -0.000110   0.015188   0.016782   0.006577
    15  O   -0.000193   0.008708   0.001942   0.003630  -0.003060   0.000021
    16  C   -1.447988  -3.292498  -0.045289  -0.000661   0.000368   0.000002
    17  C    0.700190   1.117841   0.007983   0.000762  -0.000075   0.000002
    18  Cl  -0.119413   0.093559   0.000013   0.000005   0.000000   0.000000
    19  C    7.097274  -0.468991  -0.009903   0.000100   0.000051   0.000000
    20  C   -0.468991  13.576642   0.135923   0.002066   0.001512  -0.000001
    21  H   -0.009903   0.135923   0.312214   0.000023   0.000019   0.000000
    22  H    0.000100   0.002066   0.000023   0.517967   0.003986  -0.000194
    23  H    0.000051   0.001512   0.000019   0.003986   0.567847  -0.007125
    24  H    0.000000  -0.000001   0.000000  -0.000194  -0.007125   0.323656
    25  H    0.000020   0.000619  -0.000021   0.002927   0.003442  -0.000214
    26  H    0.000000  -0.000005   0.000002  -0.000102  -0.002963   0.003958
    27  H    0.000019   0.001053  -0.000001   0.000000   0.000010   0.000000
    28  H    0.000009  -0.000079  -0.000002  -0.006532   0.000045   0.000002
    29  H    0.000025   0.001403  -0.000001  -0.000036  -0.001140  -0.000006
    30  H   -0.000079   0.000093   0.000000  -0.000088   0.000033  -0.000002
    31  H   -0.000003  -0.000146   0.000000  -0.000088  -0.001464  -0.000079
    32  H    0.038987  -0.011021  -0.000008   0.000000   0.000000   0.000000
    33  H    0.185719  -0.008514   0.000002   0.000000   0.000000   0.000000
    34  H   -0.017225   0.286947   0.000073   0.000000   0.000000   0.000000
             25         26         27         28         29         30
     1  O   -0.000036   0.000011   0.000033   0.000006  -0.000002  -0.000002
     2  C    0.006452  -0.000858  -0.000387  -0.003311  -0.002640   0.001929
     3  C   -0.011892   0.002548   0.000004   0.014617   0.009156   0.001778
     4  C    0.010723  -0.003580   0.000005   0.021235  -0.006892   0.004498
     5  N   -0.004480   0.002476  -0.000133   0.007151   0.011200  -0.003622
     6  C    0.007933   0.014539  -0.002809  -0.035199  -0.030871   0.064119
     7  C   -0.058640  -0.029559  -0.006841  -0.022790  -0.020378  -0.005242
     8  O    0.002753  -0.004530   0.000032  -0.000496   0.000356   0.000151
     9  C    0.432275   0.332137   0.034163   0.006603   0.009494  -0.001096
    10  C   -0.064711   0.015863  -0.007099   0.000796   0.000764  -0.000191
    11  O    0.003247  -0.000013   0.246307  -0.000002  -0.000004   0.000000
    12  O    0.005412  -0.000437   0.004627   0.000018  -0.000105   0.000003
    13  C    0.000548   0.002794   0.000248   0.397108  -0.029177  -0.090048
    14  C    0.001216   0.000130   0.000004  -0.044121   0.400751   0.408427
    15  O   -0.000163   0.000016  -0.000001  -0.046934   0.000321  -0.002584
    16  C   -0.000933   0.000060  -0.000020   0.009316   0.016048  -0.012445
    17  C    0.000006  -0.000008   0.000005  -0.001173  -0.000284  -0.000399
    18  Cl   0.000000   0.000000   0.000000   0.000004   0.000017  -0.000006
    19  C    0.000020   0.000000   0.000019   0.000009   0.000025  -0.000079
    20  C    0.000619  -0.000005   0.001053  -0.000079   0.001403   0.000093
    21  H   -0.000021   0.000002  -0.000001  -0.000002  -0.000001   0.000000
    22  H    0.002927  -0.000102   0.000000  -0.006532  -0.000036  -0.000088
    23  H    0.003442  -0.002963   0.000010   0.000045  -0.001140   0.000033
    24  H   -0.000214   0.003958   0.000000   0.000002  -0.000006  -0.000002
    25  H    0.474348  -0.020619  -0.000038  -0.000001  -0.000002   0.000000
    26  H   -0.020619   0.476454  -0.000214   0.000002   0.000001   0.000000
    27  H   -0.000038  -0.000214   0.303599   0.000000   0.000000   0.000000
    28  H   -0.000001   0.000002   0.000000   0.512615   0.003597  -0.003697
    29  H   -0.000002   0.000001   0.000000   0.003597   0.512798  -0.026273
    30  H    0.000000   0.000000   0.000000  -0.003697  -0.026273   0.509223
    31  H   -0.000002   0.000000   0.000000  -0.000831  -0.025426  -0.022503
    32  H    0.000000   0.000000   0.000000   0.000002   0.000001  -0.000005
    33  H    0.000000   0.000000   0.000000   0.000000   0.000000   0.000000
    34  H    0.000000   0.000000   0.000000   0.000000   0.000000   0.000000
             31         32         33         34
     1  O    0.000001  -0.000463  -0.000391  -0.003854
     2  C   -0.000805   0.027071  -0.049524   0.044167
     3  C   -0.000606  -0.004899   0.005241   0.020995
     4  C   -0.006653   0.066795  -0.008389  -0.000994
     5  N   -0.008748   0.000111   0.000053   0.000369
     6  C    0.043596   0.006600  -0.000052   0.000150
     7  C    0.009158   0.000135  -0.000003   0.000000
     8  O    0.000561   0.000000   0.000000   0.000000
     9  C    0.000850  -0.000020   0.000000  -0.000001
    10  C    0.000038   0.000013   0.000002  -0.000065
    11  O    0.000000   0.000000   0.000000   0.000002
    12  O    0.000043   0.000000   0.000000   0.000001
    13  C   -0.107874  -0.000640  -0.000021  -0.000024
    14  C    0.419929  -0.000103  -0.000004   0.000003
    15  O    0.010865   0.004368   0.000006   0.000013
    16  C   -0.000997   0.208033   0.121986   0.003012
    17  C    0.000022  -0.007871   0.091073  -0.005913
    18  Cl  -0.000001  -0.003180  -0.007508   0.000943
    19  C   -0.000003   0.038987   0.185719  -0.017225
    20  C   -0.000146  -0.011021  -0.008514   0.286947
    21  H    0.000000  -0.000008   0.000002   0.000073
    22  H   -0.000088   0.000000   0.000000   0.000000
    23  H   -0.001464   0.000000   0.000000   0.000000
    24  H   -0.000079   0.000000   0.000000   0.000000
    25  H   -0.000002   0.000000   0.000000   0.000000
    26  H    0.000000   0.000000   0.000000   0.000000
    27  H    0.000000   0.000000   0.000000   0.000000
    28  H   -0.000831   0.000002   0.000000   0.000000
    29  H   -0.025426   0.000001   0.000000   0.000000
    30  H   -0.022503  -0.000005   0.000000   0.000000
    31  H    0.503108   0.000000   0.000000   0.000000
    32  H    0.000000   0.462973  -0.000129   0.000008
    33  H    0.000000  -0.000129   0.468513  -0.003683
    34  H    0.000000   0.000008  -0.003683   0.471682
 Mulliken atomic charges:
              1
     1  O   -0.539476
     2  C   -0.403498
     3  C    0.053580
     4  C    0.373981
     5  N   -0.377912
     6  C    0.080949
     7  C    0.003050
     8  O   -0.569202
     9  C   -0.322632
    10  C    0.347921
    11  O   -0.446378
    12  O   -0.455716
    13  C   -0.128909
    14  C   -0.415125
    15  O   -0.307878
    16  C   -0.304408
    17  C   -0.165565
    18  Cl   0.234965
    19  C   -0.333921
    20  C    0.246836
    21  H    0.428783
    22  H    0.203419
    23  H    0.171022
    24  H    0.419263
    25  H    0.209829
    26  H    0.211899
    27  H    0.427434
    28  H    0.192043
    29  H    0.177303
    30  H    0.178027
    31  H    0.188057
    32  H    0.213243
    33  H    0.205623
    34  H    0.203394
 Sum of Mulliken atomic charges =   0.00000
 Mulliken charges with hydrogens summed into heavy atoms:
              1
     1  O   -0.110694
     2  C   -0.403498
     3  C    0.053580
     4  C    0.373981
     5  N   -0.377912
     6  C    0.284368
     7  C    0.174072
     8  O   -0.149939
     9  C    0.099096
    10  C    0.347921
    11  O   -0.018944
    12  O   -0.455716
    13  C    0.063134
    14  C    0.128262
    15  O   -0.307878
    16  C   -0.091165
    17  C   -0.165565
    18  Cl   0.234965
    19  C   -0.128298
    20  C    0.450230
 Sum of Mulliken charges with hydrogens summed into heavy atoms =   0.00000
 Electronic spatial extent (au):  <R**2>=           7488.3894
 Charge=              0.0000 electrons
 Dipole moment (field-independent basis, Debye):
    X=              4.3468    Y=             -0.5476    Z=             -0.2971  Tot=              4.3912
 Quadrupole moment (field-independent basis, Debye-Ang):
   XX=           -109.1002   YY=           -115.4896   ZZ=           -129.4739
   XY=             -7.3332   XZ=              1.7956   YZ=             -3.0405
 Traceless Quadrupole moment (field-independent basis, Debye-Ang):
   XX=              8.9210   YY=              2.5316   ZZ=            -11.4526
   XY=             -7.3332   XZ=              1.7956   YZ=             -3.0405
 Octapole moment (field-independent basis, Debye-Ang**2):
  XXX=            168.8141  YYY=             39.4291  ZZZ=             -7.2296  XYY=             11.3248
  XXY=             36.1328  XXZ=             30.5872  XZZ=              9.5694  YZZ=            -15.0777
  YYZ=              6.1433  XYZ=            -15.9456
 Hexadecapole moment (field-independent basis, Debye-Ang**3):
 XXXX=          -6681.3847 YYYY=          -1981.7978 ZZZZ=           -358.5954 XXXY=           -166.0026
 XXXZ=            131.8747 YYYX=            118.8737 YYYZ=              7.4728 ZZZX=            -14.7533
 ZZZY=             -2.8416 XXYY=          -1446.9069 XXZZ=          -1319.4477 YYZZ=           -457.7163
 XXYZ=            -26.7118 YYXZ=             23.4600 ZZXY=            -11.7974
 N-N= 1.696311800469D+03 E-N=-6.665918652531D+03  KE= 1.385261484875D+03
 D1PCM: PCM CHGder 1st derivatives, ID1Alg=3 FixD1E=F DoIter=F DoCFld=F I1PDM=0.
 Calling FoFJK, ICntrl=      2127 FMM=F ISym2X=0 I1Cent= 0 IOpClX= 0 NMat=1 NMatS=1 NMatT=0.
 ***** Axes restored to original set *****
 -------------------------------------------------------------------
 Center     Atomic                   Forces (Hartrees/Bohr)
 Number     Number              X              Y              Z
 -------------------------------------------------------------------
      1        8          -0.026811261   -0.000193493    0.014729754
      2        6           0.009316899   -0.001055176   -0.004235546
      3        6          -0.012775151    0.013559935   -0.004371879
      4        6           0.000269171   -0.002805743   -0.005257061
      5        7           0.010852657   -0.025061682    0.016015664
      6        6           0.019996190   -0.003894382   -0.015472288
      7        6           0.005398588   -0.001385606    0.002376876
      8        8          -0.016960515    0.022598686    0.019291435
      9        6          -0.018447353   -0.005794010    0.011297865
     10        6          -0.009545949   -0.000762427   -0.005443695
     11        8           0.000765486    0.034746891   -0.028579811
     12        8           0.024034082    0.010701596    0.013715872
     13        6           0.009223836   -0.011698113   -0.024830507
     14        6           0.005467397    0.001846141    0.003905134
     15        8          -0.036609559    0.005871089    0.025837947
     16        6          -0.006627171   -0.013178366    0.012365209
     17        6           0.024350982   -0.011608021   -0.004532523
     18       17          -0.007275357    0.004957035    0.000472734
     19        6           0.015126509    0.002224843   -0.009905843
     20        6          -0.006810352    0.017349909   -0.008824901
     21        1           0.014782609    0.010266472   -0.014734761
     22        1           0.006695039    0.001571219    0.002262313
     23        1          -0.005467868   -0.004517949    0.002160177
     24        1           0.012643083   -0.013463048   -0.017717375
     25        1           0.001036725    0.000877274    0.002809821
     26        1           0.002025240   -0.000838999   -0.004997329
     27        1          -0.013891814   -0.030725500    0.013206559
     28        1          -0.003355579    0.001879295    0.002553198
     29        1          -0.000443638   -0.002971969    0.002709409
     30        1          -0.001778633    0.002672745    0.002432241
     31        1           0.003890711    0.000417944    0.000468638
     32        1           0.001616693    0.003047580   -0.003379481
     33        1          -0.003015564   -0.001421643    0.002717531
     34        1           0.002323867   -0.003212525    0.000954623
 -------------------------------------------------------------------
 Cartesian Forces:  Max     0.036609559 RMS     0.012327499

 GradGradGradGradGradGradGradGradGradGradGradGradGradGradGradGradGradGrad
 Berny optimization.
 Internal  Forces:  Max     0.036196086 RMS     0.007708911
 Search for a local minimum.
 Step number   1 out of a maximum of  191
 All quantities printed in internal units (Hartrees-Bohrs-Radians)
 Mixed Optimization -- RFO/linear search
 Second derivative matrix not updated -- first step.
 ITU=  0
     Eigenvalues ---    0.00230   0.00230   0.00233   0.00319   0.00694
     Eigenvalues ---    0.00800   0.00919   0.01433   0.01562   0.01709
     Eigenvalues ---    0.01843   0.01922   0.01957   0.01969   0.01980
     Eigenvalues ---    0.01995   0.01996   0.02000   0.02137   0.02241
     Eigenvalues ---    0.02416   0.03678   0.03721   0.03932   0.03938
     Eigenvalues ---    0.04275   0.04901   0.05178   0.05335   0.05466
     Eigenvalues ---    0.05601   0.07689   0.08057   0.08267   0.09706
     Eigenvalues ---    0.13053   0.13511   0.16000   0.16000   0.16000
     Eigenvalues ---    0.16000   0.16000   0.16000   0.16000   0.16000
     Eigenvalues ---    0.16000   0.16748   0.16788   0.19387   0.19435
     Eigenvalues ---    0.21972   0.22371   0.23490   0.23740   0.24601
     Eigenvalues ---    0.24993   0.24996   0.24999   0.25000   0.25000
     Eigenvalues ---    0.25000   0.27096   0.27158   0.27580   0.28491
     Eigenvalues ---    0.29074   0.33053   0.33623   0.34509   0.34656
     Eigenvalues ---    0.34727   0.34738   0.34785   0.34824   0.34827
     Eigenvalues ---    0.34835   0.35946   0.35948   0.35983   0.38001
     Eigenvalues ---    0.39767   0.40418   0.41900   0.42531   0.43042
     Eigenvalues ---    0.43983   0.44300   0.44491   0.48780   0.51685
     Eigenvalues ---    0.53260   0.56268   0.58436   0.58815   0.72106
     Eigenvalues ---    0.92222
 RFO step:  Lambda=-2.82677151D-02 EMin= 2.30000000D-03
 Linear search not attempted -- first point.
 Iteration  1 RMS(Cart)=  0.09327261 RMS(Int)=  0.00097590
 Iteration  2 RMS(Cart)=  0.00176589 RMS(Int)=  0.00032134
 Iteration  3 RMS(Cart)=  0.00000174 RMS(Int)=  0.00032134
 Iteration  4 RMS(Cart)=  0.00000000 RMS(Int)=  0.00032134
 Variable       Old X    -DE/DX   Delta X   Delta X   Delta X     New X
                                 (Linear)    (Quad)   (Total)
    R1        2.58202  -0.01562   0.00000  -0.02866  -0.02866   2.55337
    R2        1.80722   0.02320   0.00000   0.03926   0.03926   1.84648
    R3        2.69120  -0.01970   0.00000  -0.04433  -0.04431   2.64688
    R4        2.66268  -0.01448   0.00000  -0.03106  -0.03107   2.63161
    R5        2.81271  -0.02160   0.00000  -0.05927  -0.05927   2.75344
    R6        2.66939  -0.01321   0.00000  -0.02844  -0.02842   2.64097
    R7        2.39321   0.01625   0.00000   0.02180   0.02216   2.41537
    R8        2.57943  -0.00893   0.00000  -0.01591  -0.01568   2.56375
    R9        2.71657   0.01028   0.00000   0.02569   0.02575   2.74232
   R10        2.94016  -0.02229   0.00000  -0.07433  -0.07433   2.86583
   R11        2.91893   0.00629   0.00000   0.01749   0.01710   2.93602
   R12        2.06480   0.00595   0.00000   0.01594   0.01594   2.08074
   R13        2.68253   0.00236   0.00000   0.00520   0.00520   2.68773
[...]
 96447,-0.01167084,0.00061155,-0.07639901,-0.29340192,0.02072663,0.0006
 1423,0.00139714,0.00046374,0.00001375,0.00000059,-0.00001729,0.0000026
 5,-0.00001569,0.00001046,-0.00000494,0.00000286,0.00000116,-0.00001354
 ,0.00001365,-0.00000094,0.00001487,-0.00000487,-0.00001560,-0.00001155
 ,-0.00002841,0.00001851,-0.00009561,0.00009762,-0.00006020,0.00096915,
 0.00045585,0.00053987,-0.00006630,0.00001781,0.00002439,0.00007941,-0.
 00008194,0.00006429,-0.00003296,0.00001854,-0.00002813,-0.00000110,0.0
 0000511,0.00000067,-0.00053382,0.00093300,-0.00203510,0.08349624,0.317
 14596,0.00001210,-0.00003632,0.00003341,-0.00006747,0.00001924,-0.0000
 0149,-0.00003336,0.00000124,0.00001740,0.00023303,0.00005677,-0.000881
 06,-0.00012785,0.00020780,-0.00002268,0.00034279,0.00003607,0.00124300
 ,-0.00019853,0.00075264,0.00010110,0.00037754,-0.00011423,0.00010025,0
 .00003142,-0.00004244,0.00001418,-0.00006155,-0.00002053,-0.00002948,0
 .00001242,-0.00001270,0.00002360,0.00008500,-0.00002466,0.00003216,-0.
 00934111,-0.03276272,0.00145463,0.00693851,0.02188322,-0.04941247,-0.0
 0003598,0.00120551,0.00354084,0.00004883,-0.00001651,0.00000301,0.0000
 0927,-0.00004756,0.00004127,-0.00002531,0.00001000,0.00000073,-0.00004
 548,0.00002177,-0.00000563,0.00002344,-0.00000157,-0.00001285,0.000019
 10,0.00005601,-0.00006073,0.00014992,0.00002971,0.00020624,-0.00076203
 ,0.00012148,0.00007847,-0.00002204,0.00004033,0.00001530,0.00000066,-0
 .00001066,-0.00002059,0.00000040,0.00000898,-0.00000249,-0.00000152,0.
 00001287,-0.00000485,-0.00149607,-0.00153093,-0.00551643,-0.00438670,-
 0.02038837,0.05187623,0.00002463,0.00007025,-0.00007175,0.00003060,-0.
 00001676,-0.00000699,0.00005092,0.00002726,-0.00001337,-0.00003487,0.0
 0012790,0.00016667,0.00012244,0.00001489,-0.00038281,0.00060632,-0.001
 50503,-0.00036981,0.00039799,-0.00057731,0.00023026,-0.00052185,0.0003
 0287,-0.00038008,-0.00003490,0.00005263,0.00000236,-0.00011802,-0.0001
 7416,0.00007394,0.00002731,0.00007984,-0.00007677,0.00005097,0.0001065
 2,-0.00001135,-0.00863907,0.00562507,-0.00167730,-0.20916501,0.1171283
 3,-0.07180265,0.00124914,-0.00055348,0.00024285,-0.00002432,0.00002053
 ,0.00000130,-0.00001704,0.00003440,-0.00003365,0.00002613,-0.00001063,
 -0.00000117,0.00003579,-0.00001462,-0.00000029,-0.00001199,0.00000397,
 0.00000435,-0.00001992,-0.00010387,0.00010145,-0.00032230,0.00032891,-
 0.00029863,-0.00000045,-0.00017798,0.00001357,0.00016037,-0.00005208,-
 0.00008562,-0.00000347,0.00003769,0.00000445,-0.00001708,0.00002277,-0
 .00001251,-0.00000222,-0.00002242,0.00000377,0.00022225,-0.00018346,0.
 00008341,0.00865756,-0.00600092,0.00432117,0.22329211,0.00004767,0.000
 05828,-0.00007055,-0.00001160,0.00000996,-0.00000371,0.00001851,0.0000
 0379,0.00001468,-0.00004833,-0.00019130,0.00005562,-0.00020698,0.00071
 418,-0.00046004,0.00037007,-0.00082029,-0.00245787,-0.00008558,-0.0010
 8905,-0.00024763,0.00002333,0.00027358,-0.00012342,0.00008760,0.000267
 82,0.00020713,0.00001952,0.00007345,-0.00012436,-0.00002299,-0.0000265
 3,0.00006886,0.00000201,-0.00004111,0.00003394,-0.01167811,0.00725153,
 -0.00531225,0.11830993,-0.13354041,0.05236678,-0.00018661,-0.00016244,
 0.00086384,-0.00000028,-0.00000817,-0.00000505,-0.00000824,0.00001015,
 -0.00000660,0.00000770,-0.00000281,-0.00000069,0.00001054,-0.00000243,
 0.00000142,-0.00000091,-0.00000429,-0.00000542,-0.00002501,-0.00008704
 ,0.00010018,-0.00032762,0.00021271,-0.00020770,0.00018267,0.00045136,0
 .00044292,-0.00005773,0.00000489,0.00001588,0.00008361,-0.00007822,0.0
 0006511,-0.00001220,0.00001184,-0.00000842,0.00000315,0.00000621,-0.00
 000347,-0.00025903,0.00068911,0.00073968,0.02383622,-0.01486437,0.0096
 4393,-0.12718084,0.14017040,0.00011409,0.00007902,-0.00013186,-0.00005
 222,0.00003525,-0.00001758,0.00005446,-0.00012112,0.00004500,-0.000859
 50,0.00128265,-0.00020056,0.00052242,0.00025982,-0.00052873,-0.0003363
 4,-0.00403915,-0.00325331,0.00058959,-0.00074219,-0.00083943,0.0002540
 5,-0.00018354,0.00059384,-0.00006943,0.00018546,0.00017655,-0.00003620
 ,-0.00009993,0.00001032,-0.00000512,0.00003655,-0.00001486,0.00003027,
 0.00004077,0.00001463,-0.02445369,0.01807826,-0.01340633,-0.06949372,0
 .05136000,-0.07656844,0.00020916,-0.00087098,0.00314442,-0.00002169,0.
 00001809,-0.00002605,0.00000841,0.00003154,-0.00001869,0.00001773,-0.0
 0000762,0.00000179,0.00002866,-0.00001517,-0.00000106,-0.00000395,-0.0
 0000821,0.00001622,-0.00004738,-0.00015621,0.00020835,-0.00084955,0.00
 082363,-0.00081933,0.00026359,0.00019366,0.00021028,-0.00014187,0.0000
 0977,-0.00001477,0.00006508,-0.00002570,0.00005815,-0.00003238,0.00005
 956,-0.00002134,-0.00000123,-0.00001410,0.00000493,0.00065243,-0.00002
 243,0.00119761,-0.00124867,0.00101453,-0.00174771,0.07923240,-0.054024
 87,0.08324421,-0.00003952,0.00000362,0.00001154,0.00007280,-0.00001626
 ,0.00001100,0.00000230,0.00021185,-0.00001295,0.00063000,-0.00047222,-
 0.00011959,-0.00024529,-0.00007613,0.00023731,0.00014875,0.00027399,0.
 00024626,-0.00036412,0.00092990,-0.00083820,-0.00076396,-0.00000159,-0
 .00009964,-0.00004595,-0.00018254,0.00007293,0.00009252,0.00006715,-0.
 00000878,-0.00002575,-0.00004302,0.00004901,-0.00002736,-0.00004083,-0
 .00000570,0.00722145,0.00164514,-0.00516955,-0.20549911,-0.01360337,0.
 13793777,0.00108420,-0.00028112,-0.00374516,-0.00001749,0.00000545,-0.
 00001254,-0.00000815,0.00000673,0.00000137,0.00000699,-0.00000229,0.00
 000027,0.00000324,0.00000294,-0.00000439,-0.00000741,0.00000432,-0.000
 01472,0.00001255,0.00001622,-0.00002386,0.00004007,-0.00013834,0.00009
 472,-0.00010380,0.00012272,-0.00019009,-0.00053420,0.00019629,0.000074
 56,-0.00001144,0.00002307,-0.00000447,-0.00001435,0.00000423,-0.000003
 32,-0.00000018,0.00000642,0.00000187,0.00028999,-0.00001503,0.00069495
 ,-0.00599433,0.00087981,0.00399458,-0.01601006,-0.00288227,0.01559573,
 0.22011355,-0.00000394,0.00003974,-0.00004982,0.00007788,-0.00002489,0
 .00002181,0.00001290,0.00018667,-0.00013102,0.00069300,-0.00117486,-0.
 00010977,-0.00041054,0.00044316,0.00010889,-0.00015810,0.00006479,-0.0
 0000501,0.00048431,0.00037963,0.00067321,-0.00019383,-0.00025732,-0.00
 007952,-0.00009624,-0.00013876,-0.00013065,-0.00008096,-0.00016983,0.0
 0008311,0.00002138,0.00007149,-0.00007583,0.00004279,0.00009274,-0.000
 01668,0.00965005,-0.00050984,-0.00444478,-0.01362461,-0.04843105,0.010
 21874,0.00009669,0.00134905,-0.00383966,-0.00003544,0.00001032,-0.0000
 0893,-0.00001452,0.00002451,-0.00002033,0.00002036,-0.00000799,-0.0000
 0080,0.00001878,-0.00000578,-0.00000365,-0.00000628,0.00001075,-0.0000
 1414,-0.00002124,-0.00003978,0.00007964,0.00002590,-0.00008948,-0.0000
 2457,-0.00006960,-0.00071241,0.00024049,0.00028328,-0.00004733,-0.0000
 0339,-0.00005193,0.00005172,-0.00005265,-0.00000402,0.00000521,0.00000
 405,-0.00000378,-0.00002094,0.00000587,-0.00004581,-0.00003507,0.00072
 138,-0.02253229,0.00004657,0.02090529,0.01258019,0.00070075,-0.0131686
 2,0.01335928,0.04818811,-0.00009073,0.00010165,-0.00007293,0.00025723,
 -0.00009147,0.00008769,0.00004369,0.00047130,-0.00022502,0.00165684,-0
 .00346368,0.00159933,-0.00097155,0.00061948,0.00040551,0.00035124,0.00
 001825,0.00005443,-0.00013171,0.00087412,-0.00123948,0.00114128,-0.000
 66715,0.00103078,0.00004455,0.00001512,0.00021589,0.00021825,0.0001610
 8,-0.00014874,-0.00007742,-0.00007444,0.00013508,-0.00008256,-0.000107
 42,0.00004037,0.02259192,0.00486042,-0.01387872,0.13467747,0.00987607,
 -0.16498766,-0.00029811,-0.00038720,-0.00950482,-0.00011245,0.00002856
 ,0.00000424,-0.00004672,0.00007777,-0.00006465,0.00005578,-0.00002050,
 -0.00000146,0.00005987,-0.00001743,0.00000018,-0.00003536,0.00001502,-
 0.00004024,-0.00001035,-0.00007972,0.00009967,-0.00016819,-0.00007947,
 0.00010485,-0.00021642,0.00054373,-0.00010235,-0.00041642,0.00005986,0
 .00019412,0.00007826,-0.00008500,0.00004370,-0.00001857,0.00001632,0.0
 0001064,0.00000656,0.00000518,0.00000388,-0.00024527,-0.00027547,0.000
 91257,-0.00020306,0.00003955,-0.00106945,-0.00925409,-0.00156674,0.008
 69592,-0.14876022,-0.01088164,0.17771088,-0.00075316,0.00130167,-0.000
 99409,-0.00410332,0.00177074,0.00242130,-0.00059996,0.01991953,-0.0183
 6810,-0.00033185,0.00064459,-0.00208344,0.00058321,-0.00047927,0.00011
 941,0.00011763,0.00004779,-0.00002325,-0.00004553,0.00003239,0.0001102
 2,0.00006793,-0.00001726,-0.00004795,0.00002397,-0.00002580,-0.0000307
 2,0.00000422,0.00008383,-0.00006992,-0.00002480,-0.00002711,0.00006395
 ,0.00000311,-0.00003761,0.00001276,-0.00040780,-0.00034705,0.00085369,
 0.00013471,0.00002300,-0.00007425,-0.00029814,-0.00061793,0.00044489,-
 0.06615763,0.04531682,-0.03459994,0.00718685,-0.01569683,0.01474522,0.
 00094249,-0.00127095,-0.00026153,-0.00287105,-0.00030876,0.00391008,-0
 .00090246,-0.00001513,-0.00004155,0.00048623,0.00022566,-0.00041982,0.
 00005332,0.00000299,-0.00001536,0.00000204,0.00000570,-0.00000465,-0.0
 0000917,0.00000832,0.00001676,-0.00000577,0.00000040,-0.00000041,0.000
 01081,-0.00001512,0.00000608,0.00001776,-0.00001210,-0.00001005,0.0000
 6883,0.00001042,-0.00006863,-0.00001382,0.00000465,0.00000740,-0.00001
 513,-0.00000884,0.00001438,-0.00000924,-0.00001868,-0.00005643,0.06625
 925,0.00006562,-0.00025502,0.00032547,0.00259568,0.00356537,0.00159558
 ,0.00191451,-0.00392427,0.00732479,-0.00061293,-0.00272659,-0.00104142
 ,-0.00011656,0.00008269,-0.00006436,-0.00004554,0.00031461,0.00025808,
 -0.00000380,-0.00005471,-0.00005402,-0.00004582,0.00000688,0.00003745,
 -0.00001158,0.00001516,0.00001353,0.00000129,-0.00002727,0.00002825,0.
 00000085,0.00001273,-0.00002444,-0.00000598,0.00001252,-0.00000589,0.0
 0007953,0.00006896,-0.00044531,-0.00000809,0.00000553,-0.00001004,-0.0
 0169017,0.00021608,0.00067724,0.04495775,-0.20135026,0.14839955,0.0034
 1386,-0.00201474,0.00503792,-0.00013913,-0.00093325,-0.00194273,-0.000
 23198,0.00300839,0.00301892,-0.00042468,-0.00008129,-0.00074778,-0.000
 12217,-0.00006273,0.00009343,0.00003155,0.00000070,-0.00002708,0.00000
 203,-0.00000493,-0.00000062,0.00000035,-0.00000858,-0.00000747,0.00000
 225,0.00000036,0.00000014,-0.00000512,0.00000769,-0.00000284,-0.000001
 97,0.00000147,0.00000390,-0.00003068,-0.00000543,0.00002687,0.00000994
 ,-0.00001080,-0.00000431,0.00000831,0.00000763,-0.00000537,-0.00000477
 ,-0.00000081,0.00001073,-0.04957210,0.20449796,0.00022471,-0.00012945,
 0.00015002,0.00156942,0.00185202,0.00359189,-0.00009218,0.00002909,0.0
 0405153,-0.00086811,-0.00158419,-0.00205350,-0.00009040,0.00005800,-0.
 00007282,0.00015308,0.00021452,0.00022911,-0.00001109,-0.00001747,0.00
 001421,-0.00001021,0.00000416,0.00000244,-0.00000184,-0.00000052,0.000
 00081,-0.00000089,0.00000392,0.00001519,0.00000512,-0.00000419,-0.0000
 1057,-0.00000186,-0.00000497,-0.00000584,0.00008470,-0.00022698,0.0000
 1326,-0.00000987,0.00000176,0.00000841,0.00170263,0.00018189,-0.000722
 26,-0.03423058,0.14825209,-0.17491263,-0.00467132,0.01280552,-0.006755
 56,-0.00143569,-0.00147760,-0.00085961,0.00378724,0.00307079,0.0011926
 3,0.00041531,-0.00091932,-0.00020523,-0.00005088,-0.00002544,0.0000255
 0,0.00006025,0.00000539,-0.00004735,0.00000114,-0.00000466,-0.00000166
 ,-0.00000224,-0.00000353,-0.00000021,-0.00000141,0.00000076,-0.0000008
 4,0.00000031,0.00000064,-0.00000129,-0.00000171,0.00000540,0.00000105,
 -0.00002764,0.00000595,0.00002190,0.00000297,-0.00000589,0.00000431,-0
 .00000187,0.00000833,-0.00001321,-0.00000671,0.00000361,-0.00000308,0.
 03393338,-0.16237035,0.17691635,-0.00121783,-0.00068238,0.00110651,-0.
 00205957,0.00403159,0.00010817,-0.00035685,0.00043725,-0.00066779,-0.0
 0012515,-0.00012079,-0.00009077,-0.00000708,-0.00009735,0.00004441,0.0
 0005108,0.00001692,0.00002629,-0.00000350,0.00000257,-0.00000574,-0.00
 000209,-0.00000221,0.00000328,0.00000043,-0.00000022,0.00000308,-0.000
 00005,-0.00000176,-0.00005276,-0.00002994,0.00001394,0.00003601,0.0000
 0645,0.00000653,0.00001498,0.00000643,-0.00003007,0.00001480,0.0000010
 7,-0.00000173,0.00000045,0.00003406,-0.00003413,0.00004405,0.00100350,
 0.00239787,-0.00063527,0.00689765,0.00390855,-0.00524881,0.00099000,-0
 .00031096,-0.00108420,-0.20440332,-0.06416767,0.13257977,-0.01381556,-
 0.00942666,0.01723230,-0.00010690,0.00030403,-0.00033559,0.00000504,0.
 00000234,-0.00000662,0.00000001,-0.00000098,-0.00000007,0.00000002,0.0
 0000009,-0.00000065,0.00000072,0.00000031,0.00000031,-0.00000033,-0.00
 000079,0.00000078,0.00001083,-0.00002304,-0.00000101,0.00000156,-0.000
 00121,0.00000320,-0.00000016,0.00000032,-0.00000013,0.00000026,0.00000
 037,0.00000088,-0.00000015,0.00000060,0.00000024,0.00049083,0.00007527
 ,-0.00029342,0.21186831,0.00046997,0.00036079,-0.00068938,0.00405850,0
 .00288544,0.00385043,0.00078367,-0.00063629,-0.00057503,-0.00026320,-0
 .00041957,-0.00012346,0.00005283,-0.00006092,-0.00011235,-0.00000051,0
 .00005724,0.00007376,-0.00001811,0.00000642,0.00000439,0.00000874,-0.0
 0000100,-0.00001131,-0.00000289,-0.00000020,-0.00000133,-0.00000770,0.
 00002137,0.00002930,0.00001642,-0.00001340,-0.00001784,-0.00000338,-0.
 00001769,-0.00001120,0.00001834,-0.00000590,-0.00002622,-0.00000334,0.
 00000198,0.00000020,-0.00006771,0.00009255,0.00001374,0.00240224,-0.00
 055172,0.00506896,-0.01577655,-0.00280571,0.01314776,-0.00129614,-0.00
 053471,-0.00139383,-0.06297410,-0.07907866,0.06616253,0.00994084,0.008
 81224,-0.00796711,0.00008952,-0.00022892,-0.00005755,0.00001542,0.0000
 0877,-0.00001634,0.00000073,-0.00000150,-0.00000045,-0.00000037,0.0000
 0165,0.00000253,-0.00000137,0.00000013,0.00000012,0.00000085,0.0000005
 7,-0.00000082,-0.00000378,0.00001551,-0.00000029,-0.00000156,0.0000005
 7,-0.00000099,0.00000151,0.00000027,0.00000186,-0.00000031,0.00000043,
 -0.00000267,-0.00000039,0.00000033,0.00000029,-0.00084908,-0.00012407,
 0.00042816,0.06481558,0.07409648,-0.00008629,-0.00021959,0.00010489,0.
 00007365,0.00383397,0.00437483,-0.00099721,-0.00043204,-0.00007714,0.0
 0000324,-0.00018741,-0.00045017,-0.00005318,-0.00005579,-0.00002142,0.
 00002875,0.00006165,0.00001422,0.00000836,-0.00001131,-0.00000428,-0.0
 0001002,-0.00000026,0.00000910,-0.00000122,0.00000069,0.00000153,0.000
 00133,-0.00000273,0.00000198,-0.00000350,0.00000515,-0.00000280,-0.000
 00405,-0.00000039,-0.00000127,-0.00000030,-0.00002414,0.00002530,-0.00
 000151,-0.00000113,0.00000045,0.00004838,-0.00001160,0.00003743,-0.000
 63433,0.00509724,0.00050896,0.01474775,0.00510527,-0.00743747,-0.00004
 700,-0.00179350,-0.00051867,0.13134079,0.06665940,-0.16039813,-0.00245
 516,-0.00008613,0.00601224,-0.00010249,-0.00008842,-0.00009883,0.00000
 604,-0.00000648,0.00000736,0.00000009,-0.00000070,-0.00000039,-0.00000
 046,-0.00000118,-0.00000174,0.00000087,-0.00000037,0.00000030,-0.00000
 055,0.00000076,-0.00000012,0.00000018,-0.00000154,0.00000156,0.0000027
 1,-0.00000152,0.00000164,-0.00000054,0.00000012,-0.00000033,0.00000066
 ,0.00000049,0.00000102,-0.00000031,0.00000061,0.00000056,0.00064039,0.
 00005530,-0.00035891,-0.14167993,-0.07540309,0.16016454,0.00186343,-0.
 00018278,-0.00184760,0.00837254,-0.01634823,0.01531806,-0.00275601,-0.
 00015115,0.00326414,0.00081219,-0.00078843,0.00045281,-0.00002319,0.00
 006975,-0.00006173,0.00000577,0.00004061,-0.00001810,0.00001673,-0.000
 02455,-0.00001640,-0.00002421,0.00000645,0.00001961,-0.00000361,0.0000
 0650,0.00000355,0.00000798,-0.00002377,0.00004746,0.00001393,0.0000081
 9,-0.00003731,-0.00000849,0.00000670,-0.00001148,0.00009196,-0.0000891
 3,-0.00004908,-0.00003017,-0.00000636,0.00001376,-0.00044376,-0.000159
 96,0.00037770,-0.00131989,-0.00007051,0.00023623,-0.00278108,0.0024791
 7,0.00165685,-0.00104537,0.00112576,-0.00063066,-0.00156925,0.02067016
 ,-0.01917700,-0.06766958,0.04753831,-0.03530885,-0.00005772,-0.0002485
 7,0.00002290,-0.00001097,-0.00000712,0.00000950,0.,-0.00000126,0.00000
 040,0.00000098,-0.00000304,-0.00000342,0.00000122,-0.00000039,0.000000
 09,-0.00000241,0.00000291,-0.00000136,-0.00000922,0.00000516,0.0000060
 8,-0.00003165,-0.00000213,0.00003716,0.00000226,-0.00000048,-0.0000024
 6,0.00000290,0.00000027,-0.00000036,0.00000344,0.00000443,0.00001247,0
 .00009567,-0.00008573,-0.00013033,0.00076021,-0.00140467,-0.00082511,0
 .06573539,0.00007393,-0.00104909,-0.00224178,0.00402447,-0.00249385,0.
 00607369,-0.00052404,0.00228608,0.00295608,0.00056021,-0.00015343,-0.0
 0007329,-0.00006360,0.00013159,-0.00007375,-0.00003547,0.00002298,-0.0
 0000406,0.00000744,-0.00001377,-0.00000407,-0.00001166,0.00000185,0.00
 000891,-0.00000080,0.00000147,0.00000028,0.00000364,-0.00000170,0.0000
 4159,0.00001504,-0.00000735,-0.00002285,-0.00000921,-0.00000365,-0.000
 01000,0.00003039,-0.00002875,-0.00005347,-0.00000855,0.00000187,0.0000
 0489,-0.00017069,-0.00008853,0.00008508,-0.00062189,-0.00002653,-0.000
 64880,0.00271012,0.00424816,0.00218724,0.00025919,-0.00017809,0.000299
 52,0.00100106,-0.00424513,0.00695136,0.04658964,-0.19963055,0.14862666
 ,-0.00024762,-0.00034038,-0.00018140,-0.00000559,-0.00000757,0.0000080
 5,0.00000034,-0.00000049,-0.00000009,0.00000016,-0.00000091,-0.0000011
 7,-0.00000041,-0.00000029,-0.00000036,-0.00000099,0.00000130,-0.000000
 88,-0.00000571,0.00002060,-0.00000038,-0.00001523,0.00000178,0.0000115
 8,0.00000039,-0.00000124,-0.00000121,0.00000153,0.00000039,-0.00000068
 ,0.00000104,0.00000059,0.00000284,-0.00007886,-0.00023997,-0.00015744,
 -0.00111217,-0.00188250,-0.00249132,-0.05236607,0.20367511,-0.00210986
 ,-0.00214614,-0.00021666,-0.00541820,0.01438516,-0.00737171,0.00370196
 ,0.00276232,0.00068670,-0.00088173,0.00047130,-0.00011561,0.00006966,-
 0.00014079,0.00011596,0.00004067,-0.00001804,0.00002031,-0.00001660,0.
 00002285,0.00001097,0.00001855,-0.00000872,-0.00001534,0.00000209,-0.0
 0000574,-0.00000335,0.00000999,0.00002857,-0.00002006,-0.00000408,-0.0
 0001079,0.00001666,-0.00000782,-0.00001437,0.00000537,-0.00008192,0.00
 002832,0.00003402,0.00002867,0.00000786,-0.00001315,0.00032111,0.00006
 429,-0.00033653,0.00076536,-0.00088548,-0.00033518,0.00141084,0.002308
 92,0.00455513,0.00024751,-0.00005192,0.00016788,0.00089087,-0.00107401
 ,0.00372090,-0.03443215,0.14824959,-0.17237263,0.00001123,-0.00015860,
 -0.00043092,0.00001241,0.00000855,-0.00001708,0.00000065,0.00000041,-0
 .00000125,-0.00000031,0.00000321,0.00000300,-0.00000144,0.00000015,-0.
 00000034,0.00000192,-0.00000314,0.00000106,0.00001128,0.00000117,-0.00
 000169,0.00002117,-0.00000227,-0.00001923,-0.00000217,-0.00000083,0.00
 000212,-0.00000191,-0.00000002,0.00000004,-0.00000366,-0.00000520,-0.0
 0001169,-0.00012981,-0.00015311,-0.00021407,-0.00111677,-0.00237276,-0
 .00189623,0.03664249,-0.16129073,0.17405262\\-0.00001870,-0.00000311,0
 .00001340,0.00002039,-0.00001083,-0.00000345,-0.00000395,0.00000889,-0
 .00000736,-0.00000147,-0.00001828,-0.00000092,0.00000386,-0.00000776,-
 0.00000155,0.00000758,-0.00000872,-0.00000516,-0.00000270,0.00000388,0
 .00000771,-0.00000580,-0.00000102,-0.00001185,-0.00000798,-0.00001606,
 0.00000821,0.00002902,0.00000655,0.00002940,-0.00000703,0.00001396,-0.
 00000635,-0.00001434,-0.00000350,-0.00001248,0.00001356,0.00000361,-0.
 00000378,-0.00000435,-0.00000609,-0.00000441,0.00000360,0.00001913,-0.
 00000059,-0.00000087,0.00000126,-0.00000049,0.00000352,-0.00000187,-0.
 00000468,-0.00000624,0.00000123,-0.00000411,-0.00000298,-0.00000017,0.
 00000129,-0.00000712,0.00000117,0.00000547,0.00000824,0.00001219,-0.00
 000938,-0.00000967,0.00000356,0.00000384,0.00000014,0.00000155,0.00000
 660,0.00000734,-0.00000062,0.00000989,0.00000068,0.00000647,0.00000024
 ,0.00000135,-0.00000209,0.00000331,0.00000223,-0.00000028,0.00000196,-
 0.00000705,-0.00000091,-0.00000361,0.00000119,-0.00000245,-0.00000050,
 0.00000032,-0.00000456,-0.00000338,0.00000065,0.00000073,0.00000121,-0
 .00000048,-0.00000144,-0.00000459,-0.00000188,0.00000231,-0.00000316,-
 0.00000106,0.00000327,-0.00000073\\\@


 THE MOST INCOMPREHENSIBLE THING ABOUT THE WORLD
 IS THAT IT IS COMPREHENSIBLE. -- A. EINSTEIN
 Job cpu time:  0 days  8 hours 18 minutes 44.2 seconds.
 File lengths (MBytes):  RWF=    864 Int=      0 D2E=      0 Chk=     19 Scr=      1
 Normal termination of Gaussian 09 at Sat Mar 23 00:17:18 2019.
