 Entering Gaussian System, Link 0=g09
 Initial command:
 /home/yuheng/proj/yuheng/g09/l1.exe /home/yuheng/proj/yuheng/g09_scratch/Gau-47276.inp -scrdir=/home/yuheng/proj/yuheng/g09_scratch/
 Entering Link 1 = /home/yuheng/proj/yuheng/g09/l1.exe PID=     47277.
  
 Copyright (c) 1988,1990,1992,1993,1995,1998,2003,2009,2010,
            Gaussian, Inc.  All Rights Reserved.
  
 This is part of the Gaussian(R) 09 program.  It is based on
 the Gaussian(R) 03 system (copyright 2003, Gaussian, Inc.),
 the Gaussian(R) 98 system (copyright 1998, Gaussian, Inc.),
 the Gaussian(R) 94 system (copyright 1995, Gaussian, Inc.),
 the Gaussian 92(TM) system (copyright 1992, Gaussian, Inc.),
 the Gaussian 90(TM) system (copyright 1990, Gaussian, Inc.),
 the Gaussian 88(TM) system (copyright 1988, Gaussian, Inc.),
 the Gaussian 86(TM) system (copyright 1986, Carnegie Mellon
 University), and the Gaussian 82(TM) system (copyright 1983,
 Carnegie Mellon University). Gaussian is a federally registered
 trademark of Gaussian, Inc.
  
 This software contains proprietary and confidential information,
 including trade secrets, belonging to Gaussian, Inc.
  
 This software is provided under written license and may be
 used, copied, transmitted, or stored only in accord with that
 written license.
  
 The following legend is applicable only to US Government
 contracts under FAR:
  
                    RESTRICTED RIGHTS LEGEND
  
 Use, reproduction and disclosure by the US Government is
 subject to restrictions as set forth in subparagraphs (a)
 and (c) of the Commercial Computer Software - Restricted
 Rights clause in FAR 52.227-19.
  
 Gaussian, Inc.
 340 Quinnipiac St., Bldg. 40, Wallingford CT 06492
  
  
 ---------------------------------------------------------------
 Warning -- This program may not be used in any manner that
 competes with the business of Gaussian, Inc. or will provide
 assistance to any competitor of Gaussian, Inc.  The licensee
 of this program is prohibited from giving any competitor of
 Gaussian, Inc. access to this program.  By using this program,
 the user acknowledges that Gaussian, Inc. is engaged in the
 business of creating and licensing software in the field of
 computational chemistry and represents and warrants to the
 licensee that it is not a competitor of Gaussian, Inc. and that
 it will not use this program in any manner prohibited above.
 ---------------------------------------------------------------
  

 Cite this work as:
 Gaussian 09, Revision B.01,
 M. J. Frisch, G. W. Trucks, H. B. Schlegel, G. E. Scuseria, 
 M. A. Robb, J. R. Cheeseman, G. Scalmani, V. Barone, B. Mennucci, 
 G. A. Petersson, H. Nakatsuji, M. Caricato, X. Li, H. P. Hratchian, 
 A. F. Izmaylov, J. Bloino, G. Zheng, J. L. Sonnenberg, M. Hada, 
 M. Ehara, K. Toyota, R. Fukuda, J. Hasegawa, M. Ishida, T. Nakajima, 
 Y. Honda, O. Kitao, H. Nakai, T. Vreven, J. A. Montgomery, Jr., 
 J. E. Peralta, F. Ogliaro, M. Bearpark, J. J. Heyd, E. Brothers, 
 K. N. Kudin, V. N. Staroverov, T. Keith, R. Kobayashi, J. Normand, 
 K. Raghavachari, A. Rendell, J. C. Burant, S. S. Iyengar, J. Tomasi, 
 M. Cossi, N. Rega, J. M. Millam, M. Klene, J. E. Knox, J. B. Cross, 
 V. Bakken, C. Adamo, J. Jaramillo, R. Gomperts, R. E. Stratmann, 
 O. Yazyev, A. J. Austin, R. Cammi, C. Pomelli, J. W. Ochterski, 
 R. L. Martin, K. Morokuma, V. G. Zakrzewski, G. A. Voth, 
 P. Salvador, J. J. Dannenberg, S. Dapprich, A. D. Daniels, 
 O. Farkas, J. B. Foresman, J. V. Ortiz, J. Cioslowski, 
 and D. J. Fox, Gaussian, Inc., Wallingford CT, 2010.
 
 ******************************************
 Gaussian 09:  EM64L-G09RevB.01 12-Aug-2010
                22-Mar-2019 
 ******************************************
 %mem=16gb
 %nprocshared=20
 Will use up to   20 processors via shared memory.
 %chk=1b-conf-13.chk
 ----------------------------------------------------------------------
 # m062x/6-31+G(d,p) opt freq=noraman integral(ultrafinegrid) scrf=(ief
 pcm,read,solvent=methanol)
 ----------------------------------------------------------------------
 1/14=-1,18=20,19=15,26=3,38=1,40=2/1,3;
 2/9=110,12=2,17=6,18=5,40=1/2;
 3/5=1,6=6,7=111,11=2,16=1,25=1,30=1,70=2203,71=1,72=3,74=-55,75=-5/1,2,3;
 4//1;
 5/5=2,38=5,53=3/2;
 6/7=2,8=2,9=2,10=2,28=1/1;
 7//1,2,3,16;
 1/14=-1,18=20,19=15/3(2);
 2/9=110/2;
 99//99;
 2/9=110/2;
 3/5=1,6=6,7=111,11=2,16=1,25=1,30=1,70=2205,71=1,72=3,74=-55,75=-5/1,2,3;
 4/5=5,16=3/1;
 5/5=2,38=5,53=3/2;
 7//1,2,3,16;
 1/14=-1,18=20,19=15/3(-5);
 2/9=110/2;
 6/7=2,8=2,9=2,10=2,19=2,28=1/1;
 99/9=1/99;
 ----------------------------------------------------------------------
 Candidate Structure: 1b, Conformer: 13 geometry optimization and frequ
 ency calculation with methanol solvation
 ----------------------------------------------------------------------
 Symbolic Z-matrix:
 Charge =  0 Multiplicity = 1
 O                    -1.75006   0.76411  -2.04761 
 C                    -1.82964   2.01076  -1.4955 
 C                    -0.70027   2.66055  -0.92254 
 C                     0.65954   2.05771  -0.87484 
 N                     0.98382   0.984    -1.47898 
 C                     2.39758   0.77978  -1.28568 
 C                     3.14567   0.94658  -2.64745 
 O                     2.86652  -0.25685  -3.34032 
 C                     2.70512   2.081    -3.61716 
 C                     3.04314   3.50556  -3.18008 
 O                     4.35944   3.79588  -3.3506 
 O                     2.21283   4.30128  -2.75387 
 C                     2.74145   1.70141  -0.10303 
 C                     4.13542   2.3415   -0.0319 
 O                     1.67854   2.62396  -0.15801 
 C                    -0.85728   3.95165  -0.3715 
 C                    -2.11186   4.58813  -0.38333 
 Cl                   -2.28424   6.16482   0.29479 
 C                    -3.22556   3.93982  -0.94725 
 C                    -3.08306   2.65429  -1.50204 
 H                    -0.84698   0.45658  -2.0073 
 H                     2.57541  -0.23835  -0.93056 
 H                     4.22376   0.99325  -2.48663 
 H                     1.93097  -0.39762  -3.26667 
 H                     1.6348    2.03146  -3.81831 
 H                     3.18685   1.92779  -4.58364 
 H                     4.51449   4.69558  -3.10614 
 H                     2.60174   1.13234   0.81881 
 H                     4.33126   3.02598  -0.85032 
 H                     4.2421    2.91186   0.89089 
 H                     4.91462   1.57912  -0.03708 
 H                    -0.01172   4.46797   0.0597 
 H                    -4.18839   4.42917  -0.95559 
 H                    -3.93964   2.15906  -1.93595 
 

 GradGradGradGradGradGradGradGradGradGradGradGradGradGradGradGradGradGrad
 Berny optimization.
 Initialization pass.
                           ----------------------------
                           !    Initial Parameters    !
                           ! (Angstroms and Degrees)  !
 --------------------------                            --------------------------
 ! Name  Definition              Value          Derivative Info.                !
 --------------------------------------------------------------------------------
 ! R1    R(1,2)                  1.3658         estimate D2E/DX2                !
 ! R2    R(1,21)                 0.9549         estimate D2E/DX2                !
 ! R3    R(2,3)                  1.4234         estimate D2E/DX2                !
 ! R4    R(2,20)                 1.409          estimate D2E/DX2                !
 ! R5    R(3,4)                  1.4882         estimate D2E/DX2                !
 ! R6    R(3,16)                 1.4125         estimate D2E/DX2                !
 ! R7    R(4,5)                  1.274          estimate D2E/DX2                !
 ! R8    R(4,15)                 1.3685         estimate D2E/DX2                !
 ! R9    R(5,6)                  1.4415         estimate D2E/DX2                !
 ! R10   R(6,7)                  1.5626         estimate D2E/DX2                !
 ! R11   R(6,13)                 1.5383         estimate D2E/DX2                !
 ! R12   R(6,22)                 1.0929         estimate D2E/DX2                !
 ! R13   R(7,8)                  1.4164         estimate D2E/DX2                !
 ! R14   R(7,9)                  1.5561         estimate D2E/DX2                !
 ! R15   R(7,23)                 1.091          estimate D2E/DX2                !
 ! R16   R(8,24)                 0.9489         estimate D2E/DX2                !
 ! R17   R(9,10)                 1.528          estimate D2E/DX2                !
 ! R18   R(9,25)                 1.0902         estimate D2E/DX2                !
 ! R19   R(9,26)                 1.0907         estimate D2E/DX2                !
 ! R20   R(10,11)                1.3587         estimate D2E/DX2                !
 ! R21   R(10,12)                1.2265         estimate D2E/DX2                !
 ! R22   R(11,27)                0.9451         estimate D2E/DX2                !
 ! R23   R(13,14)                1.5356         estimate D2E/DX2                !
 ! R24   R(13,15)                1.4085         estimate D2E/DX2                !
 ! R25   R(13,28)                1.0923         estimate D2E/DX2                !
 ! R26   R(14,29)                1.0848         estimate D2E/DX2                !
 ! R27   R(14,30)                1.0901         estimate D2E/DX2                !
 ! R28   R(14,31)                1.0901         estimate D2E/DX2                !
 ! R29   R(16,17)                1.4068         estimate D2E/DX2                !
 ! R30   R(16,32)                1.0805         estimate D2E/DX2                !
 ! R31   R(17,18)                1.725          estimate D2E/DX2                !
 ! R32   R(17,19)                1.4066         estimate D2E/DX2                !
 ! R33   R(19,20)                1.4074         estimate D2E/DX2                !
 ! R34   R(19,33)                1.0801         estimate D2E/DX2                !
 ! R35   R(20,34)                1.0804         estimate D2E/DX2                !
 ! A1    A(2,1,21)             109.3911         estimate D2E/DX2                !
 ! A2    A(1,2,3)              122.222          estimate D2E/DX2                !
 ! A3    A(1,2,20)             117.8307         estimate D2E/DX2                !
 ! A4    A(3,2,20)             119.9472         estimate D2E/DX2                !
 ! A5    A(2,3,4)              123.5706         estimate D2E/DX2                !
 ! A6    A(2,3,16)             119.0854         estimate D2E/DX2                !
 ! A7    A(4,3,16)             117.3429         estimate D2E/DX2                !
 ! A8    A(3,4,5)              123.9716         estimate D2E/DX2                !
 ! A9    A(3,4,15)             121.9742         estimate D2E/DX2                !
 ! A10   A(5,4,15)             114.0537         estimate D2E/DX2                !
 ! A11   A(4,5,6)              107.7861         estimate D2E/DX2                !
 ! A12   A(5,6,7)              109.7278         estimate D2E/DX2                !
 ! A13   A(5,6,13)             103.7365         estimate D2E/DX2                !
 ! A14   A(5,6,22)             109.5819         estimate D2E/DX2                !
 ! A15   A(7,6,13)             119.9349         estimate D2E/DX2                !
 ! A16   A(7,6,22)             107.7417         estimate D2E/DX2                !
 ! A17   A(13,6,22)            105.7812         estimate D2E/DX2                !
 ! A18   A(6,7,8)              103.9602         estimate D2E/DX2                !
 ! A19   A(6,7,9)              119.0356         estimate D2E/DX2                !
 ! A20   A(6,7,23)             110.4368         estimate D2E/DX2                !
 ! A21   A(8,7,9)              104.9967         estimate D2E/DX2                !
 ! A22   A(8,7,23)             107.6497         estimate D2E/DX2                !
 ! A23   A(9,7,23)             109.9034         estimate D2E/DX2                !
 ! A24   A(7,8,24)             106.4018         estimate D2E/DX2                !
 ! A25   A(7,9,10)             116.0272         estimate D2E/DX2                !
 ! A26   A(7,9,25)             111.0887         estimate D2E/DX2                !
 ! A27   A(7,9,26)             108.9509         estimate D2E/DX2                !
 ! A28   A(10,9,25)            108.1999         estimate D2E/DX2                !
 ! A29   A(10,9,26)            106.6627         estimate D2E/DX2                !
 ! A30   A(25,9,26)            105.2927         estimate D2E/DX2                !
 ! A31   A(9,10,11)            112.1875         estimate D2E/DX2                !
 ! A32   A(9,10,12)            123.6777         estimate D2E/DX2                !
 ! A33   A(11,10,12)           124.115          estimate D2E/DX2                !
 ! A34   A(10,11,27)           109.2618         estimate D2E/DX2                !
 ! A35   A(6,13,14)            119.228          estimate D2E/DX2                !
 ! A36   A(6,13,15)            101.1701         estimate D2E/DX2                !
 ! A37   A(6,13,28)            107.9454         estimate D2E/DX2                !
 ! A38   A(14,13,15)           114.4458         estimate D2E/DX2                !
 ! A39   A(14,13,28)           107.1081         estimate D2E/DX2                !
 ! A40   A(15,13,28)           106.1204         estimate D2E/DX2                !
 ! A41   A(13,14,29)           113.0775         estimate D2E/DX2                !
 ! A42   A(13,14,30)           110.2533         estimate D2E/DX2                !
 ! A43   A(13,14,31)           110.9241         estimate D2E/DX2                !
 ! A44   A(29,14,30)           106.9099         estimate D2E/DX2                !
 ! A45   A(29,14,31)           107.9786         estimate D2E/DX2                !
 ! A46   A(30,14,31)           107.4567         estimate D2E/DX2                !
 ! A47   A(4,15,13)            108.1395         estimate D2E/DX2                !
 ! A48   A(3,16,17)            120.6216         estimate D2E/DX2                !
 ! A49   A(3,16,32)            120.3627         estimate D2E/DX2                !
 ! A50   A(17,16,32)           119.0144         estimate D2E/DX2                !
 ! A51   A(16,17,18)           119.9563         estimate D2E/DX2                !
 ! A52   A(16,17,19)           120.0602         estimate D2E/DX2                !
 ! A53   A(18,17,19)           119.9834         estimate D2E/DX2                !
 ! A54   A(17,19,20)           119.9244         estimate D2E/DX2                !
 ! A55   A(17,19,33)           120.005          estimate D2E/DX2                !
 ! A56   A(20,19,33)           120.0705         estimate D2E/DX2                !
 ! A57   A(2,20,19)            120.3607         estimate D2E/DX2                !
 ! A58   A(2,20,34)            119.855          estimate D2E/DX2                !
 ! A59   A(19,20,34)           119.7842         estimate D2E/DX2                !
 ! D1    D(21,1,2,3)            -2.1831         estimate D2E/DX2                !
 ! D2    D(21,1,2,20)          177.9692         estimate D2E/DX2                !
 ! D3    D(1,2,3,4)              0.2923         estimate D2E/DX2                !
 ! D4    D(1,2,3,16)           179.8932         estimate D2E/DX2                !
 ! D5    D(20,2,3,4)          -179.8631         estimate D2E/DX2                !
 ! D6    D(20,2,3,16)           -0.2622         estimate D2E/DX2                !
 ! D7    D(1,2,20,19)         -179.9996         estimate D2E/DX2                !
 ! D8    D(1,2,20,34)           -0.0535         estimate D2E/DX2                !
 ! D9    D(3,2,20,19)            0.1491         estimate D2E/DX2                !
 ! D10   D(3,2,20,34)         -179.9049         estimate D2E/DX2                !
 ! D11   D(2,3,4,5)              8.9007         estimate D2E/DX2                !
 ! D12   D(2,3,4,15)          -170.8107         estimate D2E/DX2                !
 ! D13   D(16,3,4,5)          -170.7067         estimate D2E/DX2                !
 ! D14   D(16,3,4,15)            9.5819         estimate D2E/DX2                !
 ! D15   D(2,3,16,17)            0.1891         estimate D2E/DX2                !
 ! D16   D(2,3,16,32)         -179.3788         estimate D2E/DX2                !
 ! D17   D(4,3,16,17)          179.8147         estimate D2E/DX2                !
 ! D18   D(4,3,16,32)            0.2469         estimate D2E/DX2                !
 ! D19   D(3,4,5,6)            175.4299         estimate D2E/DX2                !
 ! D20   D(15,4,5,6)            -4.8382         estimate D2E/DX2                !
 ! D21   D(3,4,15,13)          168.9688         estimate D2E/DX2                !
 ! D22   D(5,4,15,13)          -10.769          estimate D2E/DX2                !
 ! D23   D(4,5,6,7)           -112.4335         estimate D2E/DX2                !
 ! D24   D(4,5,6,13)            16.8678         estimate D2E/DX2                !
 ! D25   D(4,5,6,22)           129.4567         estimate D2E/DX2                !
 ! D26   D(5,6,7,8)            -76.0672         estimate D2E/DX2                !
 ! D27   D(5,6,7,9)             40.2261         estimate D2E/DX2                !
 ! D28   D(5,6,7,23)           168.7162         estimate D2E/DX2                !
 ! D29   D(13,6,7,8)           164.092          estimate D2E/DX2                !
 ! D30   D(13,6,7,9)           -79.6148         estimate D2E/DX2                !
 ! D31   D(13,6,7,23)           48.8753         estimate D2E/DX2                !
 ! D32   D(22,6,7,8)            43.1789         estimate D2E/DX2                !
 ! D33   D(22,6,7,9)           159.4722         estimate D2E/DX2                !
 ! D34   D(22,6,7,23)          -72.0377         estimate D2E/DX2                !
 ! D35   D(5,6,13,14)         -148.34           estimate D2E/DX2                !
 ! D36   D(5,6,13,15)          -21.9094         estimate D2E/DX2                !
 ! D37   D(5,6,13,28)           89.2794         estimate D2E/DX2                !
 ! D38   D(7,6,13,14)          -25.5373         estimate D2E/DX2                !
 ! D39   D(7,6,13,15)          100.8933         estimate D2E/DX2                !
 ! D40   D(7,6,13,28)         -147.9179         estimate D2E/DX2                !
 ! D41   D(22,6,13,14)          96.3433         estimate D2E/DX2                !
 ! D42   D(22,6,13,15)        -137.2261         estimate D2E/DX2                !
 ! D43   D(22,6,13,28)         -26.0373         estimate D2E/DX2                !
 ! D44   D(6,7,8,24)            47.9482         estimate D2E/DX2                !
 ! D45   D(9,7,8,24)           -77.8092         estimate D2E/DX2                !
 ! D46   D(23,7,8,24)          165.1206         estimate D2E/DX2                !
 ! D47   D(6,7,9,10)            70.919          estimate D2E/DX2                !
 ! D48   D(6,7,9,25)           -53.1956         estimate D2E/DX2                !
 ! D49   D(6,7,9,26)          -168.7457         estimate D2E/DX2                !
 ! D50   D(8,7,9,10)          -173.336          estimate D2E/DX2                !
 ! D51   D(8,7,9,25)            62.5494         estimate D2E/DX2                !
 ! D52   D(8,7,9,26)           -53.0008         estimate D2E/DX2                !
 ! D53   D(23,7,9,10)          -57.8165         estimate D2E/DX2                !
 ! D54   D(23,7,9,25)          178.0689         estimate D2E/DX2                !
 ! D55   D(23,7,9,26)           62.5188         estimate D2E/DX2                !
 ! D56   D(7,9,10,11)           75.6656         estimate D2E/DX2                !
 ! D57   D(7,9,10,12)         -105.8932         estimate D2E/DX2                !
 ! D58   D(25,9,10,11)        -158.7389         estimate D2E/DX2                !
 ! D59   D(25,9,10,12)          19.7023         estimate D2E/DX2                !
 ! D60   D(26,9,10,11)         -45.8954         estimate D2E/DX2                !
 ! D61   D(26,9,10,12)         132.5458         estimate D2E/DX2                !
 ! D62   D(9,10,11,27)         177.4024         estimate D2E/DX2                !
 ! D63   D(12,10,11,27)         -1.0308         estimate D2E/DX2                !
 ! D64   D(6,13,14,29)          63.9134         estimate D2E/DX2                !
 ! D65   D(6,13,14,30)        -176.4684         estimate D2E/DX2                !
 ! D66   D(6,13,14,31)         -57.5602         estimate D2E/DX2                !
 ! D67   D(15,13,14,29)        -55.9673         estimate D2E/DX2                !
 ! D68   D(15,13,14,30)         63.6509         estimate D2E/DX2                !
 ! D69   D(15,13,14,31)       -177.4408         estimate D2E/DX2                !
 ! D70   D(28,13,14,29)       -173.2923         estimate D2E/DX2                !
 ! D71   D(28,13,14,30)        -53.6741         estimate D2E/DX2                !
 ! D72   D(28,13,14,31)         65.2342         estimate D2E/DX2                !
 ! D73   D(6,13,15,4)           19.7671         estimate D2E/DX2                !
 ! D74   D(14,13,15,4)         149.2977         estimate D2E/DX2                !
 ! D75   D(28,13,15,4)         -92.8137         estimate D2E/DX2                !
 ! D76   D(3,16,17,18)         179.982          estimate D2E/DX2                !
 ! D77   D(3,16,17,19)          -0.001          estimate D2E/DX2                !
 ! D78   D(32,16,17,18)         -0.4444         estimate D2E/DX2                !
 ! D79   D(32,16,17,19)        179.5726         estimate D2E/DX2                !
 ! D80   D(16,17,19,20)         -0.1156         estimate D2E/DX2                !
 ! D81   D(16,17,19,33)        179.9816         estimate D2E/DX2                !
 ! D82   D(18,17,19,20)        179.9013         estimate D2E/DX2                !
 ! D83   D(18,17,19,33)         -0.0015         estimate D2E/DX2                !
 ! D84   D(17,19,20,2)           0.041          estimate D2E/DX2                !
 ! D85   D(17,19,20,34)       -179.9051         estimate D2E/DX2                !
 ! D86   D(33,19,20,2)         179.9437         estimate D2E/DX2                !
 ! D87   D(33,19,20,34)         -0.0024         estimate D2E/DX2                !
 --------------------------------------------------------------------------------
 Trust Radius=3.00D-01 FncErr=1.00D-07 GrdErr=1.00D-06
 Number of steps in this run=    191 maximum allowed number of steps=    204.
 GradGradGradGradGradGradGradGradGradGradGradGradGradGradGradGradGradGrad

                          Input orientation:                          
 ---------------------------------------------------------------------
 Center     Atomic      Atomic             Coordinates (Angstroms)
 Number     Number       Type             X           Y           Z
 ---------------------------------------------------------------------
      1          8           0       -1.750058    0.764109   -2.047614
      2          6           0       -1.829636    2.010758   -1.495497
      3          6           0       -0.700268    2.660554   -0.922542
      4          6           0        0.659540    2.057708   -0.874835
      5          7           0        0.983817    0.983999   -1.478977
      6          6           0        2.397583    0.779779   -1.285680
      7          6           0        3.145672    0.946578   -2.647448
      8          8           0        2.866519   -0.256848   -3.340319
      9          6           0        2.705123    2.080998   -3.617162
     10          6           0        3.043142    3.505558   -3.180077
     11          8           0        4.359437    3.795881   -3.350602
     12          8           0        2.212826    4.301281   -2.753873
     13          6           0        2.741446    1.701406   -0.103032
     14          6           0        4.135417    2.341498   -0.031900
     15          8           0        1.678538    2.623959   -0.158010
     16          6           0       -0.857275    3.951651   -0.371499
     17          6           0       -2.111856    4.588133   -0.383334
     18         17           0       -2.284242    6.164821    0.294787
     19          6           0       -3.225563    3.939820   -0.947247
     20          6           0       -3.083059    2.654294   -1.502036
     21          1           0       -0.846981    0.456583   -2.007295
     22          1           0        2.575407   -0.238351   -0.930555
     23          1           0        4.223756    0.993247   -2.486634
     24          1           0        1.930965   -0.397617   -3.266668
     25          1           0        1.634799    2.031462   -3.818306
     26          1           0        3.186853    1.927786   -4.583643
     27          1           0        4.514489    4.695577   -3.106139
     28          1           0        2.601744    1.132341    0.818812
     29          1           0        4.331256    3.025984   -0.850320
     30          1           0        4.242102    2.911859    0.890893
     31          1           0        4.914617    1.579124   -0.037077
     32          1           0       -0.011723    4.467968    0.059699
     33          1           0       -4.188390    4.429170   -0.955589
     34          1           0       -3.939643    2.159062   -1.935947
 ---------------------------------------------------------------------
                    Distance matrix (angstroms):
                    1          2          3          4          5
     1  O    0.000000
     2  C    1.365760   0.000000
     3  C    2.442202   1.423371   0.000000
     4  C    2.975730   2.565818   1.488213   0.000000
     5  N    2.801031   2.995000   2.440614   1.273968   0.000000
     6  C    4.217074   4.407801   3.642233   2.196062   1.441459
     7  C    4.935714   5.216623   4.550194   3.249249   2.457711
     8  O    4.901655   5.531661   5.203734   4.038135   2.923844
     9  C    4.903704   5.007039   4.381044   3.421302   2.956034
    10  C    5.636735   5.368072   4.452372   3.618283   3.673257
    11  O    6.943727   6.703186   5.725824   4.779111   4.775403
    12  O    5.358623   4.813679   3.812070   3.313171   3.760343
    13  C    4.983325   4.788470   3.665645   2.248769   2.344602
    14  C    6.417949   6.150883   4.927361   3.587868   3.724167
    15  O    4.334157   3.804231   2.498913   1.368516   2.217444
    16  C    3.710370   2.444570   1.412526   2.478123   3.663753
    17  C    4.186154   2.821244   2.449262   3.784872   4.875798
    18  Cl   5.910997   4.546210   4.033702   5.186737   6.377097
    19  C    3.670567   2.443455   2.830944   4.317594   5.170928
    20  C    2.376415   1.408989   2.452253   3.841399   4.396578
    21  H    0.954854   1.908667   2.460834   2.472989   1.977147
    22  H    4.578471   4.978158   4.374215   2.990909   2.080400
    23  H    5.994305   6.217816   5.428840   4.053962   3.393032
    24  H    4.047917   4.804106   4.665911   3.655955   2.449855
    25  H    4.024772   4.171113   3.772763   3.100942   2.644507
    26  H    5.670862   5.891408   5.389835   4.489927   3.922123
    27  H    7.471376   7.074627   6.008586   5.176650   5.374859
    28  H    5.224000   5.075901   4.033737   2.738047   2.814165
    29  H    6.597876   6.277223   5.045294   3.797322   3.971179
    30  H    7.010965   6.585806   5.270552   4.084375   4.466469
    31  H    7.008880   6.913628   5.786231   4.363091   4.229000
    32  H    4.602298   3.429479   2.169248   2.670824   3.936580
    33  H    4.535488   3.421102   3.911022   5.397479   6.236575
    34  H    2.598585   2.160583   3.431040   4.721093   5.082328
                    6          7          8          9         10
     6  C    0.000000
     7  C    1.562649   0.000000
     8  O    2.348625   1.416415   0.000000
     9  C    2.687668   1.556065   2.359706   0.000000
    10  C    3.381621   2.615833   3.769957   1.527963   0.000000
    11  O    4.148451   3.175874   4.318972   2.397631   1.358675
    12  O    3.819778   3.483613   4.641958   2.432546   1.226479
    13  C    1.538276   2.684626   3.785555   3.534759   3.579691
    14  C    2.651603   3.125138   4.393989   3.868812   3.529748
    15  O    2.278084   3.341166   4.453924   3.648892   3.431071
    16  C    4.635795   5.498545   6.355470   5.169560   4.827045
    17  C    5.970999   6.784448   7.549955   6.320337   5.963870
    18  Cl   7.308628   8.085219   8.999009   7.541533   6.894010
    19  C    6.459115   7.241741   7.775106   6.764370   6.668641
    20  C    5.796383   6.559371   6.873973   6.189142   6.408651
    21  H    3.339518   4.073226   4.009491   4.224670   5.079835
    22  H    1.092851   2.162633   2.427355   3.551628   4.392719
    23  H    2.196080   1.091011   2.033128   2.183470   2.861192
    24  H    2.351235   1.914630   0.948948   2.620248   4.059459
    25  H    2.926217   2.197867   2.642341   1.090186   2.136288
    26  H    3.580143   2.171017   2.533988   1.090699   2.116605
    27  H    4.809245   4.017344   5.224668   3.220400   1.893799
    28  H    2.143564   3.513591   4.392986   4.537456   4.670985
    29  H    2.995675   2.993194   4.372932   3.345553   2.704995
    30  H    3.561669   4.193369   5.462242   4.834790   4.285181
    31  H    2.921202   3.216103   4.298477   4.236833   4.134249
    32  H    4.606250   5.449585   6.493711   5.157343   4.555720
    33  H    7.536714   8.293329   8.798718   7.753606   7.622103
    34  H    6.518106   7.223437   7.357494   6.854596   7.219432
                   11         12         13         14         15
    11  O    0.000000
    12  O    2.284612   0.000000
    13  C    4.189443   3.750433   0.000000
    14  C    3.630316   3.866037   1.535556   0.000000
    15  O    4.330504   3.136459   1.408510   2.476276   0.000000
    16  C    6.009443   3.901726   4.252819   5.256890   2.870312
    17  C    7.163098   4.940103   5.653875   6.648255   4.275025
    18  Cl   7.939723   5.743756   6.733340   7.479074   5.333512
    19  C    7.957956   5.742005   6.428716   7.587919   5.138540
    20  C    7.753139   5.685601   6.065482   7.373299   4.947740
    21  H    6.329469   4.970060   4.248836   5.681495   3.807311
    22  H    5.031344   4.905529   2.115424   3.145923   3.097421
    23  H    2.935917   3.880508   2.894873   2.802018   3.815737
    24  H    4.846643   4.735192   3.882186   4.777665   4.342510
    25  H    3.279569   2.572783   3.890612   4.548196   3.708198
    26  H    2.526880   3.151232   4.508382   4.667901   4.727145
    27  H    0.945122   2.361612   4.596454   3.890544   4.585377
    28  H    5.250518   4.791400   1.092313   2.130240   2.007838
    29  H    2.616285   3.120520   2.200100   1.084751   2.770890
    30  H    4.334229   4.396905   2.169113   1.090064   2.784770
    31  H    4.025132   4.700084   2.177608   1.090135   3.402721
    32  H    5.584702   3.590625   3.906442   4.661441   2.510926
    33  H    8.899578   6.650244   7.496011   8.631184   6.189973
    34  H    8.576430   6.565895   6.943052   8.298510   5.911104
                   16         17         18         19         20
    16  C    0.000000
    17  C    1.406849   0.000000
    18  Cl   2.716301   1.724967   0.000000
    19  C    2.437296   1.406645   2.716498   0.000000
    20  C    2.813426   2.436075   4.023740   1.407365   0.000000
    21  H    3.858942   4.615936   6.320544   4.349057   3.175731
    22  H    5.445362   6.750173   8.131314   7.149031   6.380613
    23  H    6.248426   7.582022   8.765587   8.157473   7.557649
    24  H    5.922197   7.036741   8.574236   7.126209   6.129317
    25  H    4.666694   5.689730   7.025744   5.958853   5.292562
    26  H    6.180061   7.266110   8.466666   7.641383   7.023953
    27  H    6.073511   7.164751   7.742591   8.070960   8.028868
    28  H    4.618459   5.967049   7.033727   6.705103   6.326110
    29  H    5.292162   6.646208   7.411368   7.612490   7.452178
    30  H    5.355226   6.693753   7.316438   7.758961   7.710411
    31  H    6.249437   7.651493   8.541798   8.524308   8.201519
    32  H    1.080497   2.149715   2.845860   3.409054   3.893782
    33  H    3.415481   2.159801   2.863862   1.080078   2.161145
    34  H    3.893824   3.413473   4.874693   2.158364   1.080403
                   21         22         23         24         25
    21  H    0.000000
    22  H    3.654455   0.000000
    23  H    5.121538   2.579781   0.000000
    24  H    3.167438   2.428599   2.792820   0.000000
    25  H    3.452425   3.791556   3.090945   2.508474   0.000000
    26  H    5.007377   4.290812   2.519122   2.952825   1.733598
    27  H    6.922564   5.730345   3.765044   5.713229   3.987142
    28  H    4.509682   2.222560   3.684595   4.413826   4.821438
    29  H    5.895299   3.707469   2.611723   4.829201   4.131452
    30  H    6.350326   4.002420   3.884469   5.794765   5.454327
    31  H    6.191758   3.094095   2.611680   4.820782   5.025884
    32  H    4.589262   5.461070   6.041257   6.205858   4.866880
    33  H    5.296466   8.217988   9.214872   8.129297   6.917636
    34  H    3.531017   7.014576   8.264591   6.539990   5.885063
                   26         27         28         29         30
    26  H    0.000000
    27  H    3.406802   0.000000
    28  H    5.491958   5.635644   0.000000
    29  H    4.056279   2.812443   3.059918   0.000000
    30  H    5.661492   4.385443   2.421292   1.747225   0.000000
    31  H    4.876269   4.392212   2.506301   1.759283   1.757722
    32  H    6.184176   5.528194   4.304982   4.665717   4.605148
    33  H    8.591502   8.968609   7.753934   8.635067   8.762701
    34  H    7.605967   8.903685   7.171652   8.386770   8.688998
                   31         32         33         34
    31  H    0.000000
    32  H    5.711708   0.000000
    33  H    9.582858   4.298472   0.000000
    34  H    9.074137   4.974154   2.485230   0.000000
 Stoichiometry    C13H14ClNO5
 Framework group  C1[X(C13H14ClNO5)]
 Deg. of freedom    96
 Full point group                 C1      NOp   1
 Largest Abelian subgroup         C1      NOp   1
 Largest concise Abelian subgroup C1      NOp   1
                         Standard orientation:                         
 ---------------------------------------------------------------------
 Center     Atomic      Atomic             Coordinates (Angstroms)
 Number     Number       Type             X           Y           Z
 ---------------------------------------------------------------------
      1          8           0        1.159212    2.983863   -0.354929
      2          6           0        1.888997    1.835786   -0.233965
      3          6           0        1.332223    0.633927    0.287114
      4          6           0       -0.080313    0.509547    0.738832
      5          7           0       -0.967729    1.405070    0.555733
      6          6           0       -2.224738    0.882806    1.030046
      7          6           0       -3.194235    0.665081   -0.175998
      8          8           0       -3.634564    1.971585   -0.500638
      9          6           0       -2.627794    0.089009   -1.505894
     10          6           0       -2.221852   -1.383806   -1.479499
     11          8           0       -3.297448   -2.213191   -1.514309
     12          8           0       -1.057279   -1.768048   -1.460077
     13          6           0       -1.815599   -0.309958    1.911076
     14          6           0       -2.748780   -1.525584    2.007816
     15          8           0       -0.534060   -0.597917    1.402512
     16          6           0        2.146997   -0.516117    0.380781
     17          6           0        3.491810   -0.477009   -0.030522
     18         17           0        4.471457   -1.891512    0.091879
     19          6           0        4.038131    0.714446   -0.541031
     20          6           0        3.237158    1.867210   -0.642286
     21          1           0        0.261094    2.819553   -0.075408
     22          1           0       -2.690130    1.605204    1.705232
     23          1           0       -4.067164    0.089782    0.135982
     24          1           0       -2.857071    2.514177   -0.540652
     25          1           0       -1.774217    0.671296   -1.853535
     26          1           0       -3.382865    0.191362   -2.286288
     27          1           0       -2.999229   -3.109749   -1.536761
     28          1           0       -1.662554    0.059351    2.927607
     29          1           0       -2.874635   -2.041350    1.061860
     30          1           0       -2.349134   -2.252778    2.714719
     31          1           0       -3.735950   -1.231178    2.364487
     32          1           0        1.742828   -1.442076    0.763824
     33          1           0        5.070774    0.743550   -0.856262
     34          1           0        3.658671    2.780698   -1.036158
 ---------------------------------------------------------------------
 Rotational constants (GHZ):      0.4869508      0.1914035      0.1673465
 Standard basis: 6-31+G(d,p) (6D, 7F)
 There are   454 symmetry adapted basis functions of A   symmetry.
 Integral buffers will be    131072 words long.
 Raffenetti 2 integral format.
 Two-electron integral symmetry is turned on.
   454 basis functions,   762 primitive gaussians,   454 cartesian basis functions
    78 alpha electrons       78 beta electrons
       nuclear repulsion energy      1736.8018205769 Hartrees.
 NAtoms=   34 NActive=   34 NUniq=   34 SFac= 1.00D+00 NAtFMM=   50 NAOKFM=F Big=F
 Using the following non-standard input for PCM:
 radii=UA0
 --- end of non-standard input.
 ------------------------------------------------------------------------------
 United Atom Topological Model (UA0  parameters set).
  Nord Group  Hybr  Charge Alpha Radius          Bonded to
    1   OH    *     0.00   1.10  1.850   C2   [s]
    2   C     *     0.00   1.10  1.925   O1   [s]  C3   [s]  C20  [s]
    3   C     *     0.00   1.10  1.925   C2   [s]  C4   [s]  C16  [s]
    4   C     *     0.00   1.10  1.925   C3   [s]  N5   [d]  O15  [s]
    5   N     *     0.00   1.10  1.830   C4   [d]  C6   [s]
    6   CH    *     0.00   1.10  2.125   N5   [s]  C7   [s]  C13  [s]
    7   CH    *     0.00   1.10  2.125   C6   [s]  O8   [s]  C9   [s]
    8   OH    *     0.00   1.10  1.850   C7   [s]
    9   CH2   *     0.00   1.10  2.325   C7   [s]  C10  [s]
   10   C     *     0.00   1.10  1.925   C9   [s]  O11  [s]  O12  [d]
   11   OH    *     0.00   1.10  1.850   C10  [s]
   12   O     *     0.00   1.10  1.750   C10  [d]
   13   CH    *     0.00   1.10  2.125   C6   [s]  C14  [s]  O15  [s]
   14   CH3   *     0.00   1.10  2.525   C13  [s]
   15   O     *     0.00   1.10  1.750   C4   [s]  C13  [s]
   16   CH    *     0.00   1.10  2.125   C3   [s]  C17  [s]
   17   C     *     0.00   1.10  1.925   C16  [s] Cl18  [s]  C19  [s]
   18  Cl     *     0.00   1.10  1.973   C17  [s]
   19   CH    *     0.00   1.10  2.125   C17  [s]  C20  [s]
   20   CH    *     0.00   1.10  2.125   C2   [s]  C19  [s]
 ------------------------------------------------------------------------------
 Polarizable Continuum Model (PCM)
 =================================
 Model                : PCM.
 Atomic radii         : UA0 (Simple United Atom Topological Model).
 Polarization charges : Total charges.
 Charge compensation  : None.
 Solution method      : Matrix inversion.
 Cavity type          : Scaled VdW (van der Waals Surface) (Alpha=1.100).
 Cavity algorithm     : GePol (No added spheres)
                        Default sphere list used, NSphG=   20.
                        Lebedev-Laikov grids with approx.  5.0 points / Ang**2.
                        Smoothing algorithm: Karplus/York (Gamma=1.0000).
                        Polarization charges: spherical gaussians, with
                                              point-specific exponents (IZeta= 3).
                        Self-potential: point-specific (ISelfS= 7).
                        Self-field    : sphere-specific E.n sum rule (ISelfD= 2).
 1st derivatives      : Analytical E(r).r(x)/FMM algorithm (CHGder, D1EAlg=3).
                        Cavity 1st derivative terms included.
 Solvent              : Methanol, Eps=  32.613000 Eps(inf)=   1.765709
 ------------------------------------------------------------------------------
 Spheres list:
 ISph  on   Nord    Re0     Alpha      Xe            Ye            Ze
    1   O      1    1.850   1.100      1.159212      2.983863     -0.354929
    2   C      2    1.925   1.100      1.888997      1.835786     -0.233965
    3   C      3    1.925   1.100      1.332223      0.633927      0.287114
    4   C      4    1.925   1.100     -0.080313      0.509547      0.738832
    5   N      5    1.830   1.100     -0.967729      1.405070      0.555733
    6   C      6    2.125   1.100     -2.224738      0.882806      1.030046
    7   C      7    2.125   1.100     -3.194235      0.665081     -0.175998
    8   O      8    1.850   1.100     -3.634564      1.971585     -0.500638
    9   C      9    2.325   1.100     -2.627794      0.089009     -1.505894
   10   C     10    1.925   1.100     -2.221852     -1.383806     -1.479499
   11   O     11    1.850   1.100     -3.297448     -2.213191     -1.514309
   12   O     12    1.750   1.100     -1.057279     -1.768048     -1.460077
   13   C     13    2.125   1.100     -1.815599     -0.309958      1.911076
   14   C     14    2.525   1.100     -2.748780     -1.525584      2.007816
   15   O     15    1.750   1.100     -0.534060     -0.597917      1.402512
   16   C     16    2.125   1.100      2.146997     -0.516117      0.380781
   17   C     17    1.925   1.100      3.491810     -0.477009     -0.030522
   18  Cl     18    1.973   1.100      4.471457     -1.891512      0.091879
   19   C     19    2.125   1.100      4.038131      0.714446     -0.541031
   20   C     20    2.125   1.100      3.237158      1.867210     -0.642286
 ------------------------------------------------------------------------------
 One-electron integrals computed using PRISM.
 NBasis=   454 RedAO= T  NBF=   454
 NBsUse=   452 1.00D-06 NBFU=   452
 Harris functional with IExCor= 1009 diagonalized for initial guess.
 ExpMin= 4.38D-02 ExpMax= 2.52D+04 ExpMxC= 3.78D+03 IAcc=3 IRadAn=         5 AccDes= 0.00D+00
 HarFok:  IExCor= 1009 AccDes= 0.00D+00 IRadAn=         5 IDoV= 1
 ScaDFX=  1.000000  1.000000  1.000000  1.000000
 FoFCou: FMM=F IPFlag=           0 FMFlag=      100000 FMFlg1=           0
         NFxFlg=           0 DoJE=T BraDBF=F KetDBF=T FulRan=T
         Omega=  0.000000  0.000000  1.000000  0.000000  0.000000 ICntrl=     500 IOpCl=  0
         NMat0=    1 NMatS0=    1 NMatT0=    0 NMatD0=    1 NMtDS0=    0 NMtDT0=    0
         I1Cent=           4 NGrid=           0.
 Petite list used in FoFCou.
 Initial guess orbital symmetries:
       Occupied  (A) (A) (A) (A) (A) (A) (A) (A) (A) (A) (A) (A)
                 (A) (A) (A) (A) (A) (A) (A) (A) (A) (A) (A) (A)
                 (A) (A) (A) (A) (A) (A) (A) (A) (A) (A) (A) (A)
                 (A) (A) (A) (A) (A) (A) (A) (A) (A) (A) (A) (A)
                 (A) (A) (A) (A) (A) (A) (A) (A) (A) (A) (A) (A)
                 (A) (A) (A) (A) (A) (A) (A) (A) (A) (A) (A) (A)
                 (A) (A) (A) (A) (A) (A)
       Virtual   (A) (A) (A) (A) (A) (A) (A) (A) (A) (A) (A) (A)
                 (A) (A) (A) (A) (A) (A) (A) (A) (A) (A) (A) (A)
                 (A) (A) (A) (A) (A) (A) (A) (A) (A) (A) (A) (A)
                 (A) (A) (A) (A) (A) (A) (A) (A) (A) (A) (A) (A)
                 (A) (A) (A) (A) (A) (A) (A) (A) (A) (A) (A) (A)
                 (A) (A) (A) (A) (A) (A) (A) (A) (A) (A) (A) (A)
                 (A) (A) (A) (A) (A) (A) (A) (A) (A) (A) (A) (A)
                 (A) (A) (A) (A) (A) (A) (A) (A) (A) (A) (A) (A)
                 (A) (A) (A) (A) (A) (A) (A) (A) (A) (A) (A) (A)
                 (A) (A) (A) (A) (A) (A) (A) (A) (A) (A) (A) (A)
                 (A) (A) (A) (A) (A) (A) (A) (A) (A) (A) (A) (A)
                 (A) (A) (A) (A) (A) (A) (A) (A) (A) (A) (A) (A)
                 (A) (A) (A) (A) (A) (A) (A) (A) (A) (A) (A) (A)
                 (A) (A) (A) (A) (A) (A) (A) (A) (A) (A) (A) (A)
                 (A) (A) (A) (A) (A) (A) (A) (A) (A) (A) (A) (A)
                 (A) (A) (A) (A) (A) (A) (A) (A) (A) (A) (A) (A)
                 (A) (A) (A) (A) (A) (A) (A) (A) (A) (A) (A) (A)
                 (A) (A) (A) (A) (A) (A) (A) (A) (A) (A) (A) (A)
                 (A) (A) (A) (A) (A) (A) (A) (A) (A) (A) (A) (A)
                 (A) (A) (A) (A) (A) (A) (A) (A) (A) (A) (A) (A)
                 (A) (A) (A) (A) (A) (A) (A) (A) (A) (A) (A) (A)
                 (A) (A) (A) (A) (A) (A) (A) (A) (A) (A) (A) (A)
                 (A) (A) (A) (A) (A) (A) (A) (A) (A) (A) (A) (A)
                 (A) (A) (A) (A) (A) (A) (A) (A) (A) (A) (A) (A)
                 (A) (A) (A) (A) (A) (A) (A) (A) (A) (A) (A) (A)
                 (A) (A) (A) (A) (A) (A) (A) (A) (A) (A) (A) (A)
                 (A) (A) (A) (A) (A) (A) (A) (A) (A) (A) (A) (A)
                 (A) (A) (A) (A) (A) (A) (A) (A) (A) (A) (A) (A)
                 (A) (A) (A) (A) (A) (A) (A) (A) (A) (A) (A) (A)
                 (A) (A) (A) (A) (A) (A) (A) (A) (A) (A) (A) (A)
                 (A) (A) (A) (A) (A) (A) (A) (A) (A) (A) (A) (A)
                 (A) (A)
 The electronic state of the initial guess is 1-A.
 Requested convergence on RMS density matrix=1.00D-08 within 128 cycles.
 Requested convergence on MAX density matrix=1.00D-06.
 Requested convergence on             energy=1.00D-06.
 No special actions if energy rises.
 Error on total polarization charges =  0.01455
 SCF Done:  E(RM062X) =  -1394.55537481     A.U. after   15 cycles
             Convg  =    0.9229D-08             -V/T =  2.0067

 **********************************************************************

            Population analysis using the SCF density.

 **********************************************************************

 Orbital symmetries:
       Occupied  (A) (A) (A) (A) (A) (A) (A) (A) (A) (A) (A) (A)
                 (A) (A) (A) (A) (A) (A) (A) (A) (A) (A) (A) (A)
                 (A) (A) (A) (A) (A) (A) (A) (A) (A) (A) (A) (A)
                 (A) (A) (A) (A) (A) (A) (A) (A) (A) (A) (A) (A)
                 (A) (A) (A) (A) (A) (A) (A) (A) (A) (A) (A) (A)
                 (A) (A) (A) (A) (A) (A) (A) (A) (A) (A) (A) (A)
                 (A) (A) (A) (A) (A) (A)
       Virtual   (A) (A) (A) (A) (A) (A) (A) (A) (A) (A) (A) (A)
                 (A) (A) (A) (A) (A) (A) (A) (A) (A) (A) (A) (A)
                 (A) (A) (A) (A) (A) (A) (A) (A) (A) (A) (A) (A)
                 (A) (A) (A) (A) (A) (A) (A) (A) (A) (A) (A) (A)
                 (A) (A) (A) (A) (A) (A) (A) (A) (A) (A) (A) (A)
                 (A) (A) (A) (A) (A) (A) (A) (A) (A) (A) (A) (A)
                 (A) (A) (A) (A) (A) (A) (A) (A) (A) (A) (A) (A)
                 (A) (A) (A) (A) (A) (A) (A) (A) (A) (A) (A) (A)
                 (A) (A) (A) (A) (A) (A) (A) (A) (A) (A) (A) (A)
                 (A) (A) (A) (A) (A) (A) (A) (A) (A) (A) (A) (A)
                 (A) (A) (A) (A) (A) (A) (A) (A) (A) (A) (A) (A)
                 (A) (A) (A) (A) (A) (A) (A) (A) (A) (A) (A) (A)
                 (A) (A) (A) (A) (A) (A) (A) (A) (A) (A) (A) (A)
                 (A) (A) (A) (A) (A) (A) (A) (A) (A) (A) (A) (A)
                 (A) (A) (A) (A) (A) (A) (A) (A) (A) (A) (A) (A)
                 (A) (A) (A) (A) (A) (A) (A) (A) (A) (A) (A) (A)
                 (A) (A) (A) (A) (A) (A) (A) (A) (A) (A) (A) (A)
                 (A) (A) (A) (A) (A) (A) (A) (A) (A) (A) (A) (A)
                 (A) (A) (A) (A) (A) (A) (A) (A) (A) (A) (A) (A)
                 (A) (A) (A) (A) (A) (A) (A) (A) (A) (A) (A) (A)
                 (A) (A) (A) (A) (A) (A) (A) (A) (A) (A) (A) (A)
                 (A) (A) (A) (A) (A) (A) (A) (A) (A) (A) (A) (A)
                 (A) (A) (A) (A) (A) (A) (A) (A) (A) (A) (A) (A)
                 (A) (A) (A) (A) (A) (A) (A) (A) (A) (A) (A) (A)
                 (A) (A) (A) (A) (A) (A) (A) (A) (A) (A) (A) (A)
                 (A) (A) (A) (A) (A) (A) (A) (A) (A) (A) (A) (A)
                 (A) (A) (A) (A) (A) (A) (A) (A) (A) (A) (A) (A)
                 (A) (A) (A) (A) (A) (A) (A) (A) (A) (A) (A) (A)
                 (A) (A) (A) (A) (A) (A) (A) (A) (A) (A) (A) (A)
                 (A) (A) (A) (A) (A) (A) (A) (A) (A) (A) (A) (A)
                 (A) (A) (A) (A) (A) (A) (A) (A) (A) (A) (A) (A)
                 (A) (A)
 The electronic state is 1-A.
 Alpha  occ. eigenvalues -- -102.68232 -19.70275 -19.69678 -19.68252 -19.65732
 Alpha  occ. eigenvalues --  -19.65255 -14.77326 -10.70829 -10.67728 -10.64863
 Alpha  occ. eigenvalues --  -10.62604 -10.62567 -10.62199 -10.59873 -10.59555
 Alpha  occ. eigenvalues --  -10.58776 -10.58579 -10.57548 -10.57120 -10.55509
 Alpha  occ. eigenvalues --   -9.82915  -7.55317  -7.54656  -7.54646  -1.24367
 Alpha  occ. eigenvalues --   -1.24170  -1.19737  -1.16717  -1.15088  -1.04334
 Alpha  occ. eigenvalues --   -1.00841  -0.95358  -0.91920  -0.88279  -0.86937
 Alpha  occ. eigenvalues --   -0.83558  -0.81212  -0.76989  -0.73491  -0.72284
 Alpha  occ. eigenvalues --   -0.70129  -0.68977  -0.67540  -0.63412  -0.61326
 Alpha  occ. eigenvalues --   -0.60879  -0.59142  -0.58124  -0.57600  -0.56344
 Alpha  occ. eigenvalues --   -0.55103  -0.54220  -0.53691  -0.53408  -0.51785
 Alpha  occ. eigenvalues --   -0.51055  -0.50271  -0.49120  -0.48852  -0.48024
 Alpha  occ. eigenvalues --   -0.46906  -0.46532  -0.46311  -0.46131  -0.45367
 Alpha  occ. eigenvalues --   -0.43904  -0.43547  -0.42813  -0.40999  -0.40143
 Alpha  occ. eigenvalues --   -0.38959  -0.38829  -0.38203  -0.36892  -0.35396
 Alpha  occ. eigenvalues --   -0.34060  -0.31756  -0.28647
 Alpha virt. eigenvalues --   -0.03225   0.00554   0.00789   0.01907   0.02036
 Alpha virt. eigenvalues --    0.02140   0.02588   0.03329   0.03489   0.04692
 Alpha virt. eigenvalues --    0.04827   0.04857   0.05059   0.05460   0.06200
 Alpha virt. eigenvalues --    0.06334   0.07514   0.07548   0.07744   0.08221
 Alpha virt. eigenvalues --    0.08673   0.08907   0.09517   0.10077   0.10330
 Alpha virt. eigenvalues --    0.10805   0.11420   0.11685   0.12535   0.12701
 Alpha virt. eigenvalues --    0.13494   0.13685   0.14154   0.14251   0.14392
 Alpha virt. eigenvalues --    0.14887   0.15242   0.15475   0.15815   0.16467
 Alpha virt. eigenvalues --    0.16753   0.17197   0.17828   0.17960   0.18460
 Alpha virt. eigenvalues --    0.18780   0.19137   0.19965   0.20102   0.20513
 Alpha virt. eigenvalues --    0.20661   0.20863   0.21427   0.21663   0.22106
 Alpha virt. eigenvalues --    0.22608   0.23024   0.23203   0.23816   0.24056
 Alpha virt. eigenvalues --    0.24281   0.24713   0.24892   0.25220   0.25622
 Alpha virt. eigenvalues --    0.26137   0.26272   0.26624   0.27297   0.27549
 Alpha virt. eigenvalues --    0.27897   0.28331   0.28726   0.28969   0.29651
 Alpha virt. eigenvalues --    0.30047   0.30343   0.30805   0.31949   0.32320
 Alpha virt. eigenvalues --    0.32577   0.32752   0.33033   0.33549   0.33655
 Alpha virt. eigenvalues --    0.34411   0.34839   0.35180   0.36031   0.36716
 Alpha virt. eigenvalues --    0.37071   0.37543   0.37859   0.38323   0.38903
 Alpha virt. eigenvalues --    0.39309   0.39684   0.40371   0.40827   0.41537
 Alpha virt. eigenvalues --    0.42100   0.42428   0.43491   0.44472   0.44689
 Alpha virt. eigenvalues --    0.45539   0.45984   0.47858   0.48195   0.50117
 Alpha virt. eigenvalues --    0.51061   0.51828   0.52240   0.54464   0.54967
 Alpha virt. eigenvalues --    0.56784   0.59391   0.61351   0.64727   0.67071
 Alpha virt. eigenvalues --    0.67501   0.68227   0.70471   0.71078   0.72003
 Alpha virt. eigenvalues --    0.72187   0.72872   0.74396   0.74678   0.75136
 Alpha virt. eigenvalues --    0.75566   0.77702   0.78259   0.79419   0.79876
 Alpha virt. eigenvalues --    0.80706   0.81150   0.81635   0.82581   0.82867
 Alpha virt. eigenvalues --    0.83875   0.85073   0.85368   0.86332   0.88596
 Alpha virt. eigenvalues --    0.88922   0.90322   0.91282   0.91770   0.93122
 Alpha virt. eigenvalues --    0.93675   0.95146   0.96026   0.97449   0.97743
 Alpha virt. eigenvalues --    0.98877   1.00106   1.00726   1.03008   1.03843
 Alpha virt. eigenvalues --    1.05554   1.05639   1.06018   1.06906   1.08830
 Alpha virt. eigenvalues --    1.09488   1.11416   1.12037   1.12871   1.12951
 Alpha virt. eigenvalues --    1.14107   1.15088   1.16314   1.16744   1.18113
 Alpha virt. eigenvalues --    1.18504   1.19654   1.20275   1.20674   1.21873
 Alpha virt. eigenvalues --    1.23268   1.24477   1.25657   1.26582   1.27557
 Alpha virt. eigenvalues --    1.28750   1.29391   1.30458   1.31821   1.32743
 Alpha virt. eigenvalues --    1.33581   1.34787   1.35229   1.37175   1.37808
 Alpha virt. eigenvalues --    1.38076   1.38675   1.39329   1.40646   1.41741
 Alpha virt. eigenvalues --    1.41978   1.42508   1.43388   1.43665   1.44511
 Alpha virt. eigenvalues --    1.45222   1.45433   1.46544   1.47163   1.48144
 Alpha virt. eigenvalues --    1.49279   1.50546   1.52406   1.53357   1.56253
 Alpha virt. eigenvalues --    1.57551   1.57778   1.58441   1.59361   1.60468
 Alpha virt. eigenvalues --    1.62244   1.64800   1.65944   1.66304   1.68112
 Alpha virt. eigenvalues --    1.69266   1.71136   1.75464   1.76967   1.78137
 Alpha virt. eigenvalues --    1.78452   1.78903   1.79843   1.80683   1.82027
 Alpha virt. eigenvalues --    1.82466   1.84013   1.85880   1.86649   1.88173
 Alpha virt. eigenvalues --    1.89660   1.90255   1.91427   1.93563   1.95905
 Alpha virt. eigenvalues --    1.96433   1.96849   1.97734   1.99282   1.99933
 Alpha virt. eigenvalues --    2.01717   2.02211   2.03068   2.04940   2.05464
 Alpha virt. eigenvalues --    2.06223   2.07027   2.08230   2.10137   2.10426
 Alpha virt. eigenvalues --    2.11899   2.14022   2.14852   2.15814   2.17717
 Alpha virt. eigenvalues --    2.18590   2.19440   2.21102   2.21921   2.23520
 Alpha virt. eigenvalues --    2.25286   2.26285   2.28022   2.28616   2.31952
 Alpha virt. eigenvalues --    2.33147   2.34229   2.36723   2.38237   2.38765
 Alpha virt. eigenvalues --    2.40010   2.41562   2.42401   2.43147   2.44209
 Alpha virt. eigenvalues --    2.45892   2.47475   2.48594   2.48885   2.49772
 Alpha virt. eigenvalues --    2.52615   2.53404   2.54024   2.55654   2.56723
 Alpha virt. eigenvalues --    2.57228   2.58449   2.59507   2.59830   2.60633
 Alpha virt. eigenvalues --    2.61521   2.61982   2.64398   2.66565   2.68436
 Alpha virt. eigenvalues --    2.69144   2.69697   2.70602   2.71073   2.71839
 Alpha virt. eigenvalues --    2.73851   2.74209   2.75400   2.75870   2.76997
 Alpha virt. eigenvalues --    2.77900   2.80160   2.82373   2.82953   2.84180
 Alpha virt. eigenvalues --    2.85982   2.88684   2.90858   2.91256   2.92965
 Alpha virt. eigenvalues --    2.96687   2.97755   3.00856   3.03472   3.03918
 Alpha virt. eigenvalues --    3.07370   3.08506   3.08736   3.12558   3.13880
 Alpha virt. eigenvalues --    3.15694   3.21556   3.22140   3.24940   3.27309
 Alpha virt. eigenvalues --    3.32561   3.37999   3.39666   3.39932   3.43908
 Alpha virt. eigenvalues --    3.45535   3.47028   3.48201   3.52909   3.54000
 Alpha virt. eigenvalues --    3.58780   3.63765   3.66338   3.76588   4.27823
 Alpha virt. eigenvalues --    4.31004   4.32530   4.35359   4.36183   4.41172
 Alpha virt. eigenvalues --    4.41467   4.44783   4.48186   4.50706   4.51514
 Alpha virt. eigenvalues --    4.57824   4.59408   4.61080   4.68174   4.77710
 Alpha virt. eigenvalues --    4.79874   4.88910   4.89516   4.94830
          Condensed to atoms (all electrons):
              1          2          3          4          5          6
     1  O    8.427831   0.496234   0.085680  -0.054851   0.013264   0.009810
     2  C    0.496234  13.186687  -1.560135  -1.241474  -0.001176   0.123862
     3  C    0.085680  -1.560135  10.407767   1.085280  -0.251795  -0.376073
     4  C   -0.054851  -1.241474   1.085280   7.991610   0.268995  -0.226572
     5  N    0.013264  -0.001176  -0.251795   0.268995   7.303682  -0.022560
     6  C    0.009810   0.123862  -0.376073  -0.226572  -0.022560   9.233815
     7  C   -0.002583   0.122061   0.094246   0.300946  -0.211602  -1.106229
     8  O    0.000721  -0.005422  -0.000970  -0.023995   0.014199  -0.137098
     9  C    0.000214   0.051629  -0.039102  -0.298945   0.071399   0.295119
    10  C   -0.000145   0.013810  -0.009250   0.054835  -0.021369   0.018798
    11  O    0.000003   0.002583   0.009042  -0.015464   0.007308  -0.049692
    12  O   -0.000099  -0.004797   0.015039  -0.011366  -0.003690   0.003148
    13  C    0.001125  -0.324703   0.324733  -1.219858   0.345358  -2.305454
    14  C   -0.000065  -0.037992   0.007274  -0.274815  -0.034684   0.254596
    15  O   -0.003161  -0.037330  -0.157756   0.515230  -0.200004  -0.089067
    16  C    0.107013  -0.298265   0.307472  -0.735464  -0.139639  -0.150785
    17  C   -0.020181  -1.704906  -1.670113   0.008748  -0.038290   0.046867
    18  Cl  -0.000530   0.008116  -0.011480   0.004205  -0.000356   0.001171
    19  C    0.049311  -0.375155  -0.351171  -0.301066  -0.006280   0.028824
    20  C   -0.748564  -1.909245  -1.819829   0.049783   0.174897   0.055968
    21  H    0.186631   0.047541  -0.141816  -0.006157   0.065748   0.011078
    22  H    0.000301   0.001861   0.006743   0.025538  -0.061742   0.393721
    23  H    0.000006  -0.000004  -0.001009  -0.037058   0.017339  -0.043984
    24  H   -0.000024  -0.009493   0.003401  -0.000164   0.032061  -0.066900
    25  H   -0.000544   0.022837  -0.012054  -0.023239   0.029541  -0.045960
    26  H   -0.000002  -0.001449  -0.000301   0.002784   0.000092   0.054758
    27  H    0.000000  -0.000320  -0.000638  -0.000633  -0.000380   0.007372
    28  H    0.000027   0.001103  -0.012299   0.065045  -0.003599   0.034745
    29  H   -0.000002   0.000974   0.000511   0.033334  -0.006444   0.003660
    30  H   -0.000001   0.000833  -0.000144  -0.004862   0.000938   0.011730
    31  H    0.000000  -0.000323  -0.001742  -0.013381  -0.000453   0.029517
    32  H   -0.000509   0.002363   0.018763   0.026940   0.002670   0.003846
    33  H   -0.000416  -0.000223   0.005755  -0.000715   0.000048  -0.000014
    34  H   -0.003438   0.012742   0.013282  -0.000726   0.000537   0.000171
              7          8          9         10         11         12
     1  O   -0.002583   0.000721   0.000214  -0.000145   0.000003  -0.000099
     2  C    0.122061  -0.005422   0.051629   0.013810   0.002583  -0.004797
     3  C    0.094246  -0.000970  -0.039102  -0.009250   0.009042   0.015039
     4  C    0.300946  -0.023995  -0.298945   0.054835  -0.015464  -0.011366
     5  N   -0.211602   0.014199   0.071399  -0.021369   0.007308  -0.003690
     6  C   -1.106229  -0.137098   0.295119   0.018798  -0.049692   0.003148
     7  C    7.311397   0.315857  -0.237742  -0.263262   0.056462  -0.023495
     8  O    0.315857   8.238478  -0.133357  -0.019051  -0.000117   0.000144
     9  C   -0.237742  -0.133357   6.688292  -0.413195  -0.290870  -0.197805
    10  C   -0.263262  -0.019051  -0.413195   5.698089   0.329740   0.624470
    11  O    0.056462  -0.000117  -0.290870   0.329740   8.230659  -0.143605
    12  O   -0.023495   0.000144  -0.197805   0.624470  -0.143605   8.085630
    13  C   -0.333715   0.073747  -0.061321   0.069449   0.040300   0.036236
    14  C   -0.274855   0.003463   0.045194  -0.151981  -0.002704  -0.014102
    15  O    0.080797  -0.003657  -0.020565   0.002283  -0.005424  -0.006854
    16  C    0.003793  -0.003986  -0.102787   0.056193  -0.011057   0.014419
    17  C   -0.017886  -0.000735  -0.001393  -0.015424  -0.001805  -0.002084
    18  Cl   0.000089  -0.000002  -0.000171   0.000897  -0.000001  -0.000212
    19  C    0.016046  -0.000249  -0.005028   0.003585  -0.000312  -0.002976
    20  C   -0.011415  -0.000307   0.034371  -0.013483   0.000486   0.002900
    21  H   -0.003157  -0.000358  -0.001117  -0.000733   0.000002   0.000038
    22  H   -0.012198  -0.007374   0.010424   0.005627  -0.000134  -0.000295
    23  H    0.386698  -0.043079  -0.038145  -0.015576   0.007772   0.001377
    24  H    0.040177   0.265956  -0.035371  -0.001310   0.000179   0.000191
    25  H    0.003183   0.001859   0.418978  -0.072611   0.009036   0.002119
    26  H   -0.089661  -0.004375   0.372855  -0.011250   0.000354   0.004243
    27  H   -0.011068   0.000113   0.041917  -0.019792   0.258174   0.002425
    28  H    0.032985  -0.000887  -0.001243  -0.000369  -0.000090  -0.000151
    29  H    0.044265  -0.000551  -0.015672   0.020376  -0.003276  -0.004152
    30  H   -0.008526   0.000057   0.000041   0.000470   0.000372   0.000194
    31  H   -0.023949  -0.000057   0.001686  -0.002379   0.000476   0.000048
    32  H   -0.000769   0.000001   0.001027   0.000959   0.000002   0.000725
    33  H   -0.000006   0.000000   0.000004  -0.000007   0.000000  -0.000001
    34  H   -0.000017   0.000000   0.000015  -0.000005   0.000000   0.000001
             13         14         15         16         17         18
     1  O    0.001125  -0.000065  -0.003161   0.107013  -0.020181  -0.000530
     2  C   -0.324703  -0.037992  -0.037330  -0.298265  -1.704906   0.008116
     3  C    0.324733   0.007274  -0.157756   0.307472  -1.670113  -0.011480
     4  C   -1.219858  -0.274815   0.515230  -0.735464   0.008748   0.004205
     5  N    0.345358  -0.034684  -0.200004  -0.139639  -0.038290  -0.000356
     6  C   -2.305454   0.254596  -0.089067  -0.150785   0.046867   0.001171
     7  C   -0.333715  -0.274855   0.080797   0.003793  -0.017886   0.000089
     8  O    0.073747   0.003463  -0.003657  -0.003986  -0.000735  -0.000002
     9  C   -0.061321   0.045194  -0.020565  -0.102787  -0.001393  -0.000171
    10  C    0.069449  -0.151981   0.002283   0.056193  -0.015424   0.000897
    11  O    0.040300  -0.002704  -0.005424  -0.011057  -0.001805  -0.000001
    12  O    0.036236  -0.014102  -0.006854   0.014419  -0.002084  -0.000212
    13  C    9.346259  -0.009251  -0.169345  -0.019066  -0.068173   0.000174
    14  C   -0.009251   5.870661  -0.102020  -0.016218   0.000301   0.000154
    15  O   -0.169345  -0.102020   8.374097   0.034584   0.045367  -0.001000
    16  C   -0.019066  -0.016218   0.034584   9.332735   0.328072  -0.090261
    17  C   -0.068173   0.000301   0.045367   0.328072   8.501279  -0.096910
    18  Cl   0.000174   0.000154  -0.001000  -0.090261  -0.096910  17.022149
    19  C   -0.090741  -0.005559  -0.003382  -0.422375   0.350019  -0.127176
    20  C   -0.040302  -0.005120   0.014591  -2.037282   0.337405   0.069820
    21  H   -0.002644   0.000562   0.001968  -0.023682   0.003128   0.000011
    22  H   -0.060752  -0.011752   0.009287  -0.001240  -0.000490   0.000000
    23  H    0.025903   0.021186  -0.004710  -0.003517  -0.000186  -0.000001
    24  H    0.029229  -0.001025  -0.000410  -0.000183   0.000136   0.000000
    25  H    0.015170   0.000161  -0.002724  -0.024794  -0.003800  -0.000003
    26  H   -0.001429   0.003643   0.000197   0.001632   0.000213   0.000000
    27  H   -0.004206   0.001512   0.000117   0.000499   0.000174  -0.000001
    28  H    0.263800  -0.067187  -0.052110   0.017929   0.002833   0.000011
    29  H   -0.083332   0.363880  -0.002182   0.002985   0.000345   0.000000
    30  H   -0.053540   0.429851  -0.005525  -0.004759  -0.000427  -0.000005
    31  H   -0.098852   0.462834   0.008353   0.000451   0.000065   0.000000
    32  H    0.011297  -0.000895   0.010757   0.344136  -0.101380   0.001357
    33  H   -0.000002   0.000001   0.000000   0.028871   0.054960  -0.005427
    34  H    0.000056   0.000001   0.000020   0.003584  -0.000182   0.000920
             19         20         21         22         23         24
     1  O    0.049311  -0.748564   0.186631   0.000301   0.000006  -0.000024
     2  C   -0.375155  -1.909245   0.047541   0.001861  -0.000004  -0.009493
     3  C   -0.351171  -1.819829  -0.141816   0.006743  -0.001009   0.003401
     4  C   -0.301066   0.049783  -0.006157   0.025538  -0.037058  -0.000164
     5  N   -0.006280   0.174897   0.065748  -0.061742   0.017339   0.032061
     6  C    0.028824   0.055968   0.011078   0.393721  -0.043984  -0.066900
     7  C    0.016046  -0.011415  -0.003157  -0.012198   0.386698   0.040177
     8  O   -0.000249  -0.000307  -0.000358  -0.007374  -0.043079   0.265956
     9  C   -0.005028   0.034371  -0.001117   0.010424  -0.038145  -0.035371
    10  C    0.003585  -0.013483  -0.000733   0.005627  -0.015576  -0.001310
    11  O   -0.000312   0.000486   0.000002  -0.000134   0.007772   0.000179
    12  O   -0.002976   0.002900   0.000038  -0.000295   0.001377   0.000191
    13  C   -0.090741  -0.040302  -0.002644  -0.060752   0.025903   0.029229
    14  C   -0.005559  -0.005120   0.000562  -0.011752   0.021186  -0.001025
    15  O   -0.003382   0.014591   0.001968   0.009287  -0.004710  -0.000410
    16  C   -0.422375  -2.037282  -0.023682  -0.001240  -0.003517  -0.000183
    17  C    0.350019   0.337405   0.003128  -0.000490  -0.000186   0.000136
    18  Cl  -0.127176   0.069820   0.000011   0.000000  -0.000001   0.000000
    19  C    7.372304   0.048487  -0.005769   0.000059  -0.000037  -0.000145
    20  C    0.048487  10.959233   0.126625  -0.000521   0.000075  -0.000176
    21  H   -0.005769   0.126625   0.296724  -0.000213   0.000000   0.000128
    22  H    0.000059  -0.000521  -0.000213   0.509383  -0.003657  -0.003217
    23  H   -0.000037   0.000075   0.000000  -0.003657   0.537951   0.005813
    24  H   -0.000145  -0.000176   0.000128  -0.003217   0.005813   0.327116
    25  H   -0.000608   0.007462   0.000058  -0.000148   0.003731   0.001764
    26  H   -0.000010  -0.000021   0.000002  -0.000064  -0.003675  -0.000445
    27  H    0.000009  -0.000027   0.000000   0.000000   0.000019   0.000000
    28  H    0.000581  -0.000319  -0.000006  -0.007876  -0.000099  -0.000006
    29  H    0.000151  -0.000155   0.000000  -0.000040  -0.002312  -0.000002
    30  H   -0.000047   0.000136   0.000000  -0.000095   0.000118   0.000000
    31  H   -0.000013   0.000014   0.000000   0.000380  -0.000263  -0.000005
    32  H    0.002924  -0.000240  -0.000009   0.000001   0.000000   0.000000
    33  H    0.261994  -0.015162   0.000002   0.000000   0.000000   0.000000
    34  H   -0.006470   0.309078   0.000065   0.000000   0.000000   0.000000
             25         26         27         28         29         30
     1  O   -0.000544  -0.000002   0.000000   0.000027  -0.000002  -0.000001
     2  C    0.022837  -0.001449  -0.000320   0.001103   0.000974   0.000833
     3  C   -0.012054  -0.000301  -0.000638  -0.012299   0.000511  -0.000144
     4  C   -0.023239   0.002784  -0.000633   0.065045   0.033334  -0.004862
     5  N    0.029541   0.000092  -0.000380  -0.003599  -0.006444   0.000938
     6  C   -0.045960   0.054758   0.007372   0.034745   0.003660   0.011730
     7  C    0.003183  -0.089661  -0.011068   0.032985   0.044265  -0.008526
     8  O    0.001859  -0.004375   0.000113  -0.000887  -0.000551   0.000057
     9  C    0.418978   0.372855   0.041917  -0.001243  -0.015672   0.000041
    10  C   -0.072611  -0.011250  -0.019792  -0.000369   0.020376   0.000470
    11  O    0.009036   0.000354   0.258174  -0.000090  -0.003276   0.000372
    12  O    0.002119   0.004243   0.002425  -0.000151  -0.004152   0.000194
    13  C    0.015170  -0.001429  -0.004206   0.263800  -0.083332  -0.053540
    14  C    0.000161   0.003643   0.001512  -0.067187   0.363880   0.429851
    15  O   -0.002724   0.000197   0.000117  -0.052110  -0.002182  -0.005525
    16  C   -0.024794   0.001632   0.000499   0.017929   0.002985  -0.004759
    17  C   -0.003800   0.000213   0.000174   0.002833   0.000345  -0.000427
    18  Cl  -0.000003   0.000000  -0.000001   0.000011   0.000000  -0.000005
    19  C   -0.000608  -0.000010   0.000009   0.000581   0.000151  -0.000047
    20  C    0.007462  -0.000021  -0.000027  -0.000319  -0.000155   0.000136
    21  H    0.000058   0.000002   0.000000  -0.000006   0.000000   0.000000
    22  H   -0.000148  -0.000064   0.000000  -0.007876  -0.000040  -0.000095
    23  H    0.003731  -0.003675   0.000019  -0.000099  -0.002312   0.000118
    24  H    0.001764  -0.000445   0.000000  -0.000006  -0.000002   0.000000
    25  H    0.494694  -0.028784  -0.000180  -0.000005  -0.000022   0.000001
    26  H   -0.028784   0.491090  -0.000022   0.000000   0.000002   0.000000
    27  H   -0.000180  -0.000022   0.292117   0.000000  -0.000265  -0.000003
    28  H   -0.000005   0.000000   0.000000   0.548835   0.004353  -0.004974
    29  H   -0.000022   0.000002  -0.000265   0.004353   0.525390  -0.026289
    30  H    0.000001   0.000000  -0.000003  -0.004974  -0.026289   0.502997
    31  H    0.000000   0.000001  -0.000005  -0.001663  -0.026689  -0.023098
    32  H    0.000000   0.000000   0.000000  -0.000010  -0.000002  -0.000002
    33  H    0.000000   0.000000   0.000000   0.000000   0.000000   0.000000
    34  H    0.000000   0.000000   0.000000   0.000000   0.000000   0.000000
             31         32         33         34
     1  O    0.000000  -0.000509  -0.000416  -0.003438
     2  C   -0.000323   0.002363  -0.000223   0.012742
     3  C   -0.001742   0.018763   0.005755   0.013282
     4  C   -0.013381   0.026940  -0.000715  -0.000726
     5  N   -0.000453   0.002670   0.000048   0.000537
     6  C    0.029517   0.003846  -0.000014   0.000171
     7  C   -0.023949  -0.000769  -0.000006  -0.000017
     8  O   -0.000057   0.000001   0.000000   0.000000
     9  C    0.001686   0.001027   0.000004   0.000015
    10  C   -0.002379   0.000959  -0.000007  -0.000005
    11  O    0.000476   0.000002   0.000000   0.000000
    12  O    0.000048   0.000725  -0.000001   0.000001
    13  C   -0.098852   0.011297  -0.000002   0.000056
    14  C    0.462834  -0.000895   0.000001   0.000001
    15  O    0.008353   0.010757   0.000000   0.000020
    16  C    0.000451   0.344136   0.028871   0.003584
    17  C    0.000065  -0.101380   0.054960  -0.000182
    18  Cl   0.000000   0.001357  -0.005427   0.000920
    19  C   -0.000013   0.002924   0.261994  -0.006470
    20  C    0.000014  -0.000240  -0.015162   0.309078
    21  H    0.000000  -0.000009   0.000002   0.000065
    22  H    0.000380   0.000001   0.000000   0.000000
    23  H   -0.000263   0.000000   0.000000   0.000000
    24  H   -0.000005   0.000000   0.000000   0.000000
    25  H    0.000000   0.000000   0.000000   0.000000
    26  H    0.000001   0.000000   0.000000   0.000000
    27  H   -0.000005   0.000000   0.000000   0.000000
    28  H   -0.001663  -0.000010   0.000000   0.000000
    29  H   -0.026689  -0.000002   0.000000   0.000000
    30  H   -0.023098  -0.000002   0.000000   0.000000
    31  H    0.498532   0.000000   0.000000   0.000000
    32  H    0.000000   0.464448  -0.000126   0.000008
    33  H    0.000000  -0.000126   0.467370  -0.003553
    34  H    0.000000   0.000008  -0.003553   0.470551
 Mulliken atomic charges:
              1
     1  O   -0.543059
     2  C   -0.582823
     3  C    0.032686
     4  C    0.057528
     5  N   -0.344015
     6  C   -0.002186
     7  C   -0.176867
     8  O   -0.528971
     9  C   -0.139336
    10  C    0.131610
    11  O   -0.428400
    12  O   -0.377662
    13  C    0.363850
    14  C   -0.455047
    15  O   -0.230422
    16  C   -0.499005
    17  C    0.064456
    18  Cl   0.224459
    19  C   -0.429723
    20  C    0.410837
    21  H    0.445352
    22  H    0.208485
    23  H    0.189323
    24  H    0.412727
    25  H    0.204883
    26  H    0.209620
    27  H    0.433091
    28  H    0.180645
    29  H    0.171164
    30  H    0.184559
    31  H    0.190514
    32  H    0.211719
    33  H    0.206646
    34  H    0.203360
 Sum of Mulliken atomic charges =   0.00000
 Mulliken charges with hydrogens summed into heavy atoms:
              1
     1  O   -0.097707
     2  C   -0.582823
     3  C    0.032686
     4  C    0.057528
     5  N   -0.344015
     6  C    0.206299
     7  C    0.012456
     8  O   -0.116244
     9  C    0.275168
    10  C    0.131610
    11  O    0.004691
    12  O   -0.377662
    13  C    0.544495
    14  C    0.091189
    15  O   -0.230422
    16  C   -0.287285
    17  C    0.064456
    18  Cl   0.224459
    19  C   -0.223077
    20  C    0.614197
 Sum of Mulliken charges with hydrogens summed into heavy atoms =   0.00000
 Electronic spatial extent (au):  <R**2>=           6596.1603
 Charge=              0.0000 electrons
 Dipole moment (field-independent basis, Debye):
    X=             -3.0860    Y=             -0.9260    Z=              1.8592  Tot=              3.7199
 Quadrupole moment (field-independent basis, Debye-Ang):
   XX=           -122.4067   YY=           -123.8152   ZZ=           -118.9417
   XY=             15.9625   XZ=             -7.7267   YZ=             -0.3141
 Traceless Quadrupole moment (field-independent basis, Debye-Ang):
   XX=             -0.6855   YY=             -2.0940   ZZ=              2.7795
   XY=             15.9625   XZ=             -7.7267   YZ=             -0.3141
 Octapole moment (field-independent basis, Debye-Ang**2):
  XXX=             27.7009  YYY=            -57.1303  ZZZ=              4.6355  XYY=            -33.3771
  XXY=            -17.1268  XXZ=             -2.1371  XZZ=            -33.9658  YZZ=             -5.1814
  YYZ=             -7.9164  XYZ=            -15.3020
 Hexadecapole moment (field-independent basis, Debye-Ang**3):
 XXXX=          -5949.9512 YYYY=          -1710.1226 ZZZZ=           -938.4880 XXXY=            328.9161
 XXXZ=           -169.1598 YYYX=             86.6801 YYYZ=             52.1707 ZZZX=              8.7841
 ZZZY=             11.6414 XXYY=          -1252.6726 XXZZ=          -1097.1379 YYZZ=           -446.4150
 XXYZ=             -3.0774 YYXZ=             24.1255 ZZXY=             18.6144
 N-N= 1.736801820577D+03 E-N=-6.746481082244D+03  KE= 1.385313133263D+03
 D1PCM: PCM CHGder 1st derivatives, ID1Alg=3 FixD1E=F DoIter=F DoCFld=F I1PDM=0.
 Calling FoFJK, ICntrl=      2127 FMM=F ISym2X=0 I1Cent= 0 IOpClX= 0 NMat=1 NMatS=1 NMatT=0.
 ***** Axes restored to original set *****
 -------------------------------------------------------------------
 Center     Atomic                   Forces (Hartrees/Bohr)
 Number     Number              X              Y              Z
 -------------------------------------------------------------------
      1        8          -0.023003926    0.021099277    0.005167933
      2        6           0.006138484   -0.007204364   -0.002618035
      3        6           0.005360697    0.015456284    0.009436413
      4        6           0.004602509   -0.002428102    0.002358674
      5        7          -0.017618212   -0.008238314   -0.011177635
      6        6           0.021302891    0.003022805    0.003101933
      7        6          -0.013424980   -0.005926583   -0.003520932
      8        8           0.028479923   -0.002391734   -0.006952477
      9        6           0.004325296    0.014517475    0.010361241
     10        6          -0.012902604    0.004432394    0.002227288
     11        8          -0.023860154   -0.036115168   -0.005046856
     12        8           0.023484069   -0.013536702   -0.008013388
     13        6           0.016482205   -0.010973897   -0.003010144
     14        6          -0.012256207    0.003165001   -0.000609793
     15        8          -0.031095510    0.036768334    0.003482646
     16        6          -0.018480280   -0.000514434   -0.004088191
     17        6           0.007405511   -0.024635403   -0.009614914
     18       17          -0.000580949    0.007973036    0.003361179
     19        6           0.014412214   -0.011203595   -0.001629841
     20        6           0.012471475    0.013376557    0.009373013
     21        1           0.023653216   -0.007566072    0.000417298
     22        1           0.003297676   -0.003724006   -0.008674193
     23        1           0.002390563   -0.000848242    0.001131394
     24        1          -0.024269448   -0.006566840   -0.001490124
     25        1          -0.003097781    0.000013605    0.006577955
     26        1           0.006529015   -0.004900220    0.001413816
     27        1           0.006047777    0.034354737    0.010133658
     28        1          -0.001013062   -0.003803840    0.003070528
     29        1          -0.000904569    0.002411544   -0.006745643
     30        1          -0.001583937    0.000053810    0.002407395
     31        1          -0.001451679   -0.004266805   -0.000225234
     32        1           0.004536017   -0.000173804    0.001391908
     33        1          -0.003957682    0.001720596   -0.000153204
     34        1          -0.001418559   -0.003347331   -0.001843667
 -------------------------------------------------------------------
 Cartesian Forces:  Max     0.036768334 RMS     0.011957360

 GradGradGradGradGradGradGradGradGradGradGradGradGradGradGradGradGradGrad
 Berny optimization.
 Internal  Forces:  Max     0.036317302 RMS     0.007924835
 Search for a local minimum.
 Step number   1 out of a maximum of  191
 All quantities printed in internal units (Hartrees-Bohrs-Radians)
 Mixed Optimization -- RFO/linear search
 Second derivative matrix not updated -- first step.
 ITU=  0
     Eigenvalues ---    0.00230   0.00230   0.00296   0.00396   0.00728
     Eigenvalues ---    0.00863   0.00922   0.01475   0.01566   0.01696
     Eigenvalues ---    0.01850   0.01927   0.01959   0.01970   0.01980
     Eigenvalues ---    0.01994   0.01996   0.02000   0.02145   0.02238
     Eigenvalues ---    0.02370   0.03372   0.03556   0.03641   0.03924
     Eigenvalues ---    0.04182   0.04952   0.04968   0.05148   0.05241
     Eigenvalues ---    0.05550   0.08054   0.08485   0.08563   0.09935
     Eigenvalues ---    0.13195   0.13839   0.16000   0.16000   0.16000
     Eigenvalues ---    0.16000   0.16000   0.16000   0.16000   0.16000
     Eigenvalues ---    0.16000   0.17135   0.17391   0.18901   0.20128
     Eigenvalues ---    0.21954   0.22371   0.23490   0.23689   0.24601
     Eigenvalues ---    0.24994   0.24999   0.25000   0.25000   0.25000
     Eigenvalues ---    0.25000   0.26603   0.27142   0.27590   0.28916
     Eigenvalues ---    0.29612   0.33046   0.33646   0.34485   0.34547
     Eigenvalues ---    0.34696   0.34732   0.34791   0.34797   0.34805
     Eigenvalues ---    0.35426   0.35934   0.35946   0.35985   0.37468
     Eigenvalues ---    0.39828   0.40427   0.42618   0.43005   0.43080
     Eigenvalues ---    0.43986   0.44307   0.44491   0.48082   0.51800
     Eigenvalues ---    0.53216   0.56595   0.57920   0.58801   0.70247
     Eigenvalues ---    0.92569
 RFO step:  Lambda=-3.33860542D-02 EMin= 2.30000000D-03
 Linear search not attempted -- first point.
 Maximum step size (   0.300) exceeded in Quadratic search.
    -- Step size scaled by   0.985
 Iteration  1 RMS(Cart)=  0.13623667 RMS(Int)=  0.00248118
 Iteration  2 RMS(Cart)=  0.00561544 RMS(Int)=  0.00051104
 Iteration  3 RMS(Cart)=  0.00001836 RMS(Int)=  0.00051101
 Iteration  4 RMS(Cart)=  0.00000001 RMS(Int)=  0.00051101
 Variable       Old X    -DE/DX   Delta X   Delta X   Delta X     New X
                                 (Linear)    (Quad)   (Total)
    R1        2.58091  -0.01457   0.00000  -0.02602  -0.02602   2.55489
    R2        1.80441   0.02483   0.00000   0.04078   0.04078   1.84520
    R3        2.68978  -0.01896   0.00000  -0.04141  -0.04139   2.64839
    R4        2.66260  -0.01437   0.00000  -0.03000  -0.03000   2.63260
    R5        2.81231  -0.02252   0.00000  -0.05994  -0.05994   2.75237
    R6        2.66929  -0.01312   0.00000  -0.02749  -0.02747   2.64182
    R7        2.40745   0.01405   0.00000   0.01715   0.01721   2.42466
    R8        2.58612  -0.01410   0.00000  -0.02776  -0.02768   2.55844
    R9        2.72396   0.01083   0.00000   0.02748   0.02743   2.75139
   R10        2.95298  -0.01078   0.00000  -0.03545  -0.03545   2.91753
   R11        2.90692   0.00613   0.00000   0.02144   0.02140   2.92832
   R12        2.06519   0.00119   0.00000   0.00309   0.00309   2.06828
[...]
 0.00000861,-0.00000054,-0.00000117,0.00000332,0.00000180,-0.00000226,-
 0.00000004,-0.00000270,-0.00000781,0.00000060,-0.00000578,-0.00000147,
 -0.00000201,-0.00000246,0.00018839,0.00015389,-0.00000361,0.00054706,-
 0.00084357,-0.00057021,-0.00009663,0.00004955,0.00007739,0.00005039,-0
 .00003816,0.00009888,-0.00000991,0.00002121,0.00000138,0.00014957,-0.0
 0040763,0.00064271,-0.00308634,-0.00027262,-0.00051194,0.01845408,0.13
 634074,0.00002208,-0.00001356,0.00000591,-0.00000325,0.00000780,0.0000
 0672,-0.00001699,-0.00000863,-0.00000813,0.00022112,0.00014428,0.00019
 604,0.00022969,0.00001510,-0.00011209,0.00020355,-0.00042309,0.0006307
 1,0.00034337,-0.00046281,-0.00001648,-0.00020923,0.00014378,0.00005269
 ,0.00009457,0.00019223,0.00002298,-0.00410312,0.00021041,-0.00231073,0
 .00062794,0.00106439,-0.00292619,0.00117265,-0.00052430,-0.00042116,0.
 00071900,-0.00087748,0.00128293,0.02157709,0.12652999,-0.24517317,0.00
 037387,-0.00046048,0.00018119,0.00000167,0.00000262,0.00000719,0.00000
 516,0.00000026,0.00000204,0.00000019,-0.00000259,-0.00000165,-0.000001
 05,-0.00000435,-0.00000021,-0.00000046,0.00000102,-0.00000413,-0.00002
 481,-0.00000123,-0.00001340,-0.00007189,0.00000530,-0.00001517,-0.0001
 2605,-0.00051871,-0.00020601,-0.00000421,-0.00005409,-0.00001031,0.000
 01509,0.00009090,0.00008311,0.00003784,0.00003056,-0.00005401,0.000084
 38,0.00081178,-0.00028629,-0.00057987,-0.00024934,0.00134097,-0.022195
 93,-0.13822969,0.26631641,-0.00036394,0.00012408,-0.00006340,0.0000212
 5,-0.00012662,-0.00006937,0.00006906,0.00011779,0.00016746,0.00003145,
 -0.00113514,-0.00090160,-0.00194827,-0.00026423,-0.00114433,-0.0036472
 9,-0.00052989,0.00279623,-0.00092322,0.00003703,0.00075180,0.00030641,
 0.00002446,-0.00023728,0.00015216,0.00004993,-0.00007381,-0.00017904,-
 0.00012920,0.00002957,0.00011686,-0.00000219,0.00009122,0.00005825,0.0
 0003887,0.00001820,-0.00478366,-0.02066314,-0.02647849,-0.04637091,-0.
 01049739,-0.01357724,0.00310609,0.00049437,0.00073640,-0.00001949,-0.0
 0002855,-0.00002889,-0.00003858,-0.00000317,-0.00002245,-0.00000418,0.
 00002233,0.00001454,-0.00000871,0.00002864,0.00002228,0.00001883,0.000
 02115,0.00000841,0.00045632,0.00001994,0.00021050,-0.00023573,-0.00048
 006,-0.00038749,0.00041033,0.00007242,-0.00003012,0.00002095,0.0000669
 6,0.00009641,0.00002552,-0.00003505,0.00004020,-0.00001284,0.00003373,
 -0.00004054,0.00000973,0.00002602,-0.00001168,0.00120829,0.00075845,0.
 00022971,-0.00092480,0.00221039,0.00174482,0.05077526,-0.00023612,0.00
 003407,-0.00006692,0.00000365,-0.00002439,-0.00000881,-0.00003746,0.00
 006384,0.00005627,0.00006089,-0.00046809,-0.00026720,-0.00093789,-0.00
 024311,-0.00073325,-0.00197360,0.00098012,0.00168387,-0.00030633,0.000
 12932,0.00050482,0.00014983,-0.00007048,-0.00024284,-0.00007438,-0.000
 04536,-0.00012181,-0.00069493,-0.00013082,-0.00022266,0.00032418,-0.00
 018925,0.00055487,0.00017381,-0.00000823,-0.00003792,-0.00009917,-0.01
 154027,-0.01324118,-0.01257680,-0.14987088,-0.13233392,0.00054100,0.00
 104252,0.00082602,-0.00000099,-0.00003559,-0.00002503,-0.00004804,-0.0
 0002548,-0.00003809,-0.00000867,0.00003089,0.00001966,-0.00001091,0.00
 004125,0.00002740,0.00001107,-0.00000159,-0.00000596,0.00030239,0.0000
 4105,0.00014743,0.00006718,-0.00013960,-0.00008056,0.00006616,-0.00006
 243,0.00015474,0.00002777,0.00004988,0.00006978,-0.00000678,0.00002982
 ,0.00002097,0.00001098,0.00003371,-0.00001880,0.00002387,0.00012305,-0
 .00001832,0.00045749,0.00016826,0.00007760,0.00183564,0.01253656,0.014
 04507,0.01573812,0.15980531,0.00003851,-0.00001805,0.00000230,-0.00000
 162,0.00002294,0.00000177,0.00001032,0.00001227,0.00000091,-0.00028283
 ,-0.00005877,-0.00029775,0.00024131,0.00037362,0.00056410,0.00138769,-
 0.00021978,0.00100059,0.00058771,0.00029118,0.00022930,-0.00031575,-0.
 00025877,-0.00012961,0.00001945,0.00002830,0.00008878,0.00099022,-0.00
 013772,0.00024354,-0.00046025,0.00037232,-0.00083086,-0.00027315,0.000
 17441,0.00007923,-0.00002695,0.00232376,0.00162870,-0.01494774,-0.1336
 8536,-0.22232215,-0.00011403,0.00019870,0.00020989,-0.00000388,-0.0000
 1298,-0.00000970,-0.00001149,-0.00000159,-0.00000738,-0.00000070,0.000
 00469,0.00000310,0.00000010,0.00000964,0.00000607,0.00000638,-0.000010
 78,0.00000245,-0.00004330,0.00001109,-0.00001291,-0.00021877,-0.000158
 01,-0.00018776,-0.00046452,0.00009827,0.00003620,0.00007621,-0.0000233
 5,-0.00002111,-0.00001908,-0.00000097,-0.00004502,-0.00001776,-0.00001
 318,-0.00000578,-0.00004972,-0.00025323,0.00002405,-0.00058325,0.00024
 442,0.00077921,-0.00175438,-0.01726195,-0.01850577,0.01564718,0.145237
 55,0.23550809,-0.00003733,-0.00008555,-0.00007777,-0.00008924,0.000278
 84,0.00012769,-0.00033657,-0.00027285,-0.00048426,0.00042709,0.0023078
 8,0.00227541,0.00020181,-0.00072433,-0.00029125,0.00032420,0.00001553,
 0.00002446,-0.00038066,-0.00026142,-0.00000327,0.00023596,0.00007533,0
 .00001318,0.00017483,0.00004610,0.00007424,-0.00020171,0.00010327,0.00
 011841,0.00004165,0.00000788,0.00000729,0.00010258,-0.00004858,-0.0001
 1517,-0.01695834,0.02190145,-0.00197527,-0.19991688,0.13431240,-0.0093
 3691,-0.00757587,-0.00379453,-0.00118676,0.00003646,-0.00008612,-0.000
 02649,-0.00005113,-0.00005550,-0.00006448,-0.00001546,0.00005068,0.000
 03106,-0.00001361,0.00004917,0.00003121,-0.00003187,-0.00006535,-0.000
 04553,0.00009491,0.00002234,0.00004743,-0.00009932,-0.00024395,-0.0001
 8261,0.00022400,-0.00007576,-0.00060559,-0.00002834,0.00003918,0.00004
 866,0.00004586,-0.00004675,0.00007700,0.00000729,-0.00000261,-0.000002
 66,-0.00000101,0.00002042,-0.00003316,0.00094942,-0.00015733,0.0003933
 3,0.00346667,-0.00341247,-0.00014102,0.00268281,-0.00278346,0.00059263
 ,0.21672458,0.00003909,-0.00004650,-0.00001680,-0.00007145,0.00013215,
 0.00005838,-0.00020481,-0.00018685,-0.00024306,-0.00051546,0.00122155,
 0.00062818,0.00038077,-0.00015152,0.00014064,0.00041361,0.00009798,-0.
 00046612,0.00029963,0.00002473,-0.00021966,-0.00008910,-0.00004864,0.0
 0000201,-0.00009417,-0.00003758,0.00003020,-0.00032789,-0.00023384,-0.
 00024856,0.00016808,-0.00002989,0.00042151,0.00008847,0.00004285,0.000
 10414,-0.01048141,0.01180956,-0.00087858,0.13624066,-0.16886232,0.0097
 3290,-0.00524191,-0.00076790,-0.00060819,0.00001730,-0.00002531,-0.000
 02270,-0.00001067,-0.00002030,-0.00001880,-0.00000519,0.00001711,0.000
 01076,-0.00000555,0.00001373,0.00000794,-0.00001852,-0.00003023,-0.000
 02806,-0.00003368,0.00000867,-0.00000898,0.00005734,-0.00006086,0.0000
 4524,-0.00027423,0.00001392,-0.00023756,-0.00000149,-0.00001676,-0.000
 00349,-0.00002459,0.00002467,-0.00000749,0.00001136,0.00000557,0.00001
 069,0.00002592,0.00016239,-0.00012291,0.00087904,0.00049146,0.00027687
 ,0.01186407,-0.01053070,-0.00146344,0.01399771,-0.01224800,0.00271055,
 -0.14707876,0.17924892,0.00002794,-0.00000271,0.00001426,0.00002026,-0
 .00000679,-0.00001372,0.00001969,0.00001160,0.00001958,0.00024063,-0.0
 0002636,0.00019939,0.00021030,0.00012325,-0.00000492,0.00006122,-0.000
 10852,0.00019999,-0.00073703,0.00010631,-0.00022861,0.00031461,0.00012
 719,0.00016733,0.00013149,0.00007973,0.00004972,0.00028901,0.00032851,
 0.00048321,-0.00009874,-0.00000457,-0.00054663,-0.00005832,-0.00010041
 ,-0.00022382,-0.00008709,-0.00078037,-0.00258990,-0.00975509,0.0097800
 6,-0.04634036,0.00010651,-0.00003949,0.00119567,0.00000142,0.00000274,
 0.00000231,0.00001159,0.00000335,0.00000904,0.00000204,-0.00000570,-0.
 00000382,0.00000264,-0.00000993,-0.00000786,-0.00000241,0.00000505,0.0
 0000464,-0.00005055,-0.00000001,-0.00002661,-0.00001935,-0.00002812,0.
 00002757,0.00003052,-0.00014733,-0.00071018,-0.00004137,0.00003832,0.0
 0002084,0.00001135,-0.00007450,0.00002391,-0.00001672,-0.00002224,-0.0
 0001718,-0.00002867,-0.00021898,0.00016187,-0.00018247,-0.00008286,-0.
 00003045,-0.02158922,0.01658511,-0.00005876,0.02045640,-0.01595166,0.0
 0196593,0.01073267,-0.00957871,0.04625851,0.00031477,0.00050408,0.0004
 8309,0.00101170,0.00263628,-0.00020705,0.00875198,0.00210545,0.0033379
 9,-0.00034788,-0.00076301,0.00088384,-0.00003242,-0.00031681,-0.000186
 11,0.00003714,0.00014366,-0.00006315,0.00001224,0.00000346,0.00001918,
 -0.00000017,-0.00002259,-0.00002212,0.00000870,-0.00000039,0.00000435,
 -0.00002594,0.00000890,0.00002256,0.00001135,0.00000396,-0.00000970,0.
 00001447,-0.00001759,-0.00007581,-0.00016560,0.00015140,0.00005906,0.0
 0004638,-0.00005481,0.00000033,-0.00165470,0.00153333,0.00047369,-0.21
 215636,-0.07736669,-0.12579251,-0.01371177,-0.01052875,-0.01481066,0.0
 0052146,-0.00152444,0.00031525,-0.00308090,0.00381643,-0.00082321,0.00
 001386,0.00068270,0.00088523,0.00022583,-0.00011901,0.00001344,-0.0000
 3137,0.00001128,0.00001005,-0.00000060,0.00000215,-0.00000450,0.000004
 78,0.00000406,0.00000522,-0.00000030,-0.00000076,-0.00000044,-0.000001
 37,-0.00000019,-0.00000257,-0.00000306,-0.00000481,0.00000715,0.000045
 89,-0.00004230,0.00000670,-0.00000297,0.00000399,0.00000443,-0.0000127
 8,0.00000329,-0.00000815,0.00001838,0.00000736,-0.00000439,0.22077551,
 -0.00085003,-0.00077415,-0.00094793,0.00353672,-0.00125509,-0.00391481
 ,-0.01849029,-0.00466596,-0.01373962,-0.00231278,-0.00172195,0.0008494
 8,0.00011738,0.00045079,0.00032228,-0.00002929,0.00031505,-0.00020510,
 0.00006995,-0.00003571,-0.00007387,-0.00000698,0.00004765,0.00007847,-
 0.00001607,0.00000022,0.00002145,0.00009959,0.00001949,-0.00004094,-0.
 00004865,-0.00004304,0.00000506,-0.00003507,-0.00002930,0.00007900,0.0
 0074596,-0.00038175,0.00043670,-0.00005365,0.00010497,-0.00000822,0.00
 027056,0.00062454,0.00018221,-0.07784115,-0.09207598,-0.07018316,0.011
 41304,0.00832748,0.00745273,-0.00021627,-0.00010551,0.00199567,0.00392
 885,0.00049741,-0.00223802,0.00020932,-0.00073771,0.00023506,-0.000516
 79,0.00025598,-0.00002064,-0.00004446,0.00003717,0.00006969,0.00000166
 ,-0.00000132,0.00000102,-0.00001310,-0.00001563,-0.00002242,-0.0000093
 9,-0.00000002,-0.00000964,-0.00000201,-0.00000441,0.00000673,0.0000056
 9,0.00002695,0.00000143,-0.00005802,0.00005698,-0.00002422,0.00000453,
 -0.00000643,-0.00000132,0.00001056,-0.00000919,0.00000007,-0.00004839,
 -0.00002368,-0.00000085,0.07986010,0.09072928,-0.00050652,-0.00044033,
 -0.00045770,0.00045678,-0.00428671,0.00332070,-0.01150729,-0.00544730,
 -0.00438729,-0.00009370,0.00124435,-0.00308159,-0.00001076,0.00038209,
 0.00019391,-0.00010539,-0.00011243,0.00034878,-0.00002971,0.00000323,-
 0.00008938,-0.00000684,0.00007768,0.00007656,-0.00002439,0.00001445,-0
 .00001085,0.00021009,-0.00006284,-0.00007966,-0.00013894,-0.00004356,0
 .00001428,-0.00016831,0.00009917,0.00023979,0.00059069,-0.00004838,0.0
 0017343,-0.00000944,0.00003807,0.00000271,-0.00047612,0.00080680,0.000
 39541,-0.12593697,-0.06996133,-0.13876198,0.00082759,-0.00136749,0.003
 68095,0.00126408,0.00146900,-0.00141768,-0.00077453,-0.00226643,0.0039
 1834,0.00056190,0.00042674,-0.00044283,-0.00031584,0.00015451,-0.00003
 168,0.00003579,0.00000903,0.00001457,-0.00001141,-0.00000069,0.0000227
 0,-0.00001510,-0.00001633,-0.00001592,-0.00000107,0.00000049,-0.000010
 55,0.00000021,0.00000159,0.00000660,0.00001639,0.00002978,-0.00000043,
 -0.00005734,0.00006248,-0.00001099,0.00000272,-0.00000693,-0.00000456,
 0.00000219,-0.00001195,0.00000145,-0.00002377,-0.00000753,-0.00000141,
 0.13606264,0.07894243,0.13655556,-0.00012756,0.00017391,0.00013125,0.0
 0224034,0.00074299,-0.00192960,0.00073976,-0.00082769,0.00009998,-0.00
 036728,0.00001000,0.00011532,0.00000911,-0.00010354,0.00001177,-0.0000
 1952,0.00002973,-0.00005456,0.00001656,0.00000914,0.00001978,-0.000001
 33,-0.00000881,-0.00000691,0.00000136,-0.00000228,-0.00000165,-0.00001
 192,-0.00000664,0.00000056,0.00000732,0.00000536,0.00000005,0.00000605
 ,0.00000129,0.00000177,0.00002047,-0.00002344,0.00001041,-0.00000207,0
 .00000217,0.00000107,0.00000356,0.00007960,0.00001282,-0.00128541,-0.0
 0152009,-0.00380416,-0.01426546,0.01138559,0.00089118,0.00067014,0.000
 01384,0.00122482,-0.28557033,0.11968669,-0.01365775,0.00164090,0.00036
 438,-0.00105948,0.00012778,-0.00007157,0.00009097,0.00000645,0.0000027
 9,0.00000751,0.00000478,-0.00000098,-0.00000747,0.00000121,0.00000314,
 0.00000335,0.00000111,0.00000063,0.00000437,0.00000152,0.00000100,-0.0
 0000038,-0.00000105,-0.00000137,-0.00000063,0.00000022,-0.00000025,-0.
 00000124,-0.00000016,-0.00000019,-0.00000032,0.00000162,0.00000091,0.0
 0000039,-0.00000031,-0.00000045,-0.00000029,-0.00054629,0.00048282,0.0
 0013232,0.29669311,0.00150804,-0.00071088,0.00022855,0.00071082,-0.000
 30420,-0.00591943,-0.00042019,-0.00084234,-0.00010666,-0.00017360,-0.0
 0020572,0.00025300,0.00007140,-0.00006095,0.00008190,0.00000264,0.0000
 6953,-0.00002410,0.00000494,-0.00000220,0.00000374,0.00000055,-0.00000
 454,-0.00000432,-0.00000166,-0.00000067,-0.00000125,-0.00000188,-0.000
 00589,-0.00000201,0.00000023,0.00000218,-0.00000034,-0.00000066,0.0000
 0462,0.00000643,0.00001982,-0.00000249,0.00001164,0.00000066,-0.000000
 86,0.00000373,0.00004311,0.00008802,0.00002182,-0.00149532,0.00107829,
 -0.00370949,-0.01114770,0.00781023,-0.00162814,-0.00110850,0.00017750,
 0.00139585,0.12109675,-0.11122070,-0.00307495,0.02253674,-0.00608052,0
 .00121486,-0.00030792,-0.00024211,-0.00014974,-0.00000378,0.00000338,0
 .00000525,0.00000144,0.00000035,-0.00000185,-0.00000009,0.00000198,0.0
 0000154,-0.00000104,-0.00000014,0.00000315,0.00000111,0.00000076,-0.00
 000007,-0.00000025,0.00000020,-0.00000023,0.00000040,0.00000044,0.0000
 0173,-0.00000024,0.00000002,0.00000003,0.00000190,0.00000123,-0.000000
 07,0.00000100,0.00000010,-0.00000035,-0.00056310,0.00045042,0.00011507
 ,-0.12955325,0.11058438,0.00109442,-0.00037238,0.00003804,-0.00186815,
 -0.00588678,0.00330002,0.00032559,-0.00029121,-0.00100403,0.00003835,0
 .00027790,-0.00040812,0.00010237,0.00005340,-0.00004201,-0.00004870,-0
 .00002356,0.00006538,-0.00000364,0.00001190,0.00001069,-0.00000117,-0.
 00000105,-0.00000169,-0.00000286,0.00000029,-0.00000368,-0.00000496,-0
 .00000776,0.00000083,0.00000448,0.00000424,-0.00000045,0.00000642,0.00
 000952,-0.00000337,0.00003307,0.00001336,0.00001195,-0.00000102,0.0000
 0417,0.00000571,0.00001103,0.00001480,0.00007527,-0.00378103,-0.003737
 92,0.00116220,-0.01533421,0.00753979,0.00296745,0.00041425,0.00183865,
 -0.00089078,-0.01263939,-0.00369365,-0.04675352,0.01486807,-0.00766081
 ,0.00539904,-0.00011265,-0.00003469,-0.00030380,0.00001027,-0.00000475
 ,-0.00000300,0.00000147,-0.00000076,-0.00000260,-0.00000010,0.00000275
 ,0.00000364,-0.00000033,-0.00000139,0.00000658,0.00000194,0.00000088,-
 0.00000021,0.00000057,-0.00000200,0.00000022,0.00000134,-0.00000035,-0
 .00000145,0.00000059,-0.00000056,-0.00000054,0.00000266,0.00000098,0.0
 0000024,-0.00000033,0.00000014,-0.00000007,-0.00063293,0.00054566,0.00
 011257,0.01644896,0.00875394,0.03869237,0.00230445,-0.00208359,0.00078
 464,-0.01464069,-0.01185292,-0.01660177,-0.00325893,0.00368607,-0.0007
 0306,-0.00001299,-0.00120203,-0.00083011,0.00016586,0.00014726,0.00013
 667,0.00002624,0.00004787,0.00004644,-0.00001236,-0.00001517,-0.000043
 70,0.00000154,0.00002142,0.00002761,-0.00000285,0.00000110,0.00000660,
 0.00003253,0.00000858,-0.00001601,-0.00002193,-0.00001216,0.00000343,-
 0.00002744,-0.00001101,0.00003762,0.00004830,-0.00015172,-0.00000710,-
 0.00003398,0.00005682,-0.00000387,-0.00057860,0.00034995,-0.00000552,-
 0.00039904,0.00111043,0.00098566,0.00209950,0.00238697,-0.00044320,0.0
 0019112,0.00054641,0.00037624,0.00863242,0.00339201,0.00469983,-0.2089
 2450,-0.07609762,-0.12534156,-0.00037713,-0.00003502,0.00005855,-0.000
 02308,0.00000504,0.00000267,-0.00000540,-0.00000021,0.00001090,-0.0000
 0637,-0.00000646,-0.00000982,-0.00000412,0.00000073,-0.00000985,-0.000
 00245,-0.00000136,0.00000252,0.00000200,0.00000768,-0.00000100,-0.0000
 2156,0.00001768,-0.00000080,0.00000229,-0.00000176,-0.00000030,0.00000
 225,-0.00000270,-0.00000079,-0.00002084,-0.00001110,0.00000140,-0.0000
 3995,-0.00016435,0.00005006,0.00000535,-0.00122237,0.00106562,0.214900
 35,-0.00176257,0.00005136,0.00164329,0.01137560,0.00927819,0.00771990,
 0.00323226,0.00028680,-0.00212281,0.00034249,0.00050970,0.00051553,-0.
 00001973,0.00001200,-0.00002610,-0.00002489,0.00000387,-0.00001274,0.0
 0000205,0.00000891,0.00001995,-0.00000118,-0.00001694,-0.00001495,0.00
 000268,-0.00000339,-0.00000416,-0.00003917,0.00000320,0.00001461,0.000
 02146,0.00001040,-0.00000153,0.00002339,-0.00000072,-0.00002379,-0.000
 00834,0.00008259,0.00003556,0.00001664,-0.00003072,0.00000582,0.000339
 80,-0.00024163,0.00006614,0.00047659,-0.00092499,0.00018780,0.00266906
 ,-0.00017854,-0.00441326,-0.00044579,-0.00090271,-0.00100104,-0.019156
 63,-0.00558215,-0.01390971,-0.07711388,-0.09258049,-0.07251752,-0.0000
 2410,-0.00013399,0.00033086,0.00000856,-0.00000322,-0.00000177,0.00000
 229,-0.00000001,-0.00000428,0.00000505,0.00000553,0.00000446,0.0000001
 4,0.00000356,0.00000553,0.00000140,0.00000080,-0.00000118,-0.00000254,
 -0.00000585,-0.00000074,0.00001563,-0.00001218,0.00000424,-0.00000172,
 0.00000092,-0.00000043,-0.00000023,0.00000188,0.00000080,0.00001225,0.
 00000554,-0.00000077,-0.00015663,-0.00005755,0.00020324,-0.00087545,-0
 .00058939,0.00264725,0.08108551,0.09099922,0.00095290,0.00154578,-0.00
 174772,0.00025542,-0.00187156,0.00385831,-0.00102465,-0.00188091,0.003
 21906,0.00025839,-0.00007731,-0.00000196,0.00004070,0.00004048,0.00006
 320,-0.00001564,0.00001200,0.00003029,-0.00000725,-0.00000264,-0.00000
 539,-0.00000011,0.00000464,-0.00000044,-0.00000319,0.00000152,-0.00000
 018,0.00001274,-0.00000295,-0.00000281,-0.00000688,-0.00000258,-0.0000
 0040,-0.00000535,-0.00000065,0.00000129,0.00002588,0.00001750,-0.00001
 613,0.00000487,-0.00000268,0.00000374,0.00001897,0.00003214,-0.0000548
 2,0.00053557,0.00045416,-0.00032420,-0.00021645,-0.00453151,0.00408165
 ,-0.00034044,-0.00060236,-0.00033446,-0.01153694,-0.00480329,-0.005134
 00,-0.12612022,-0.07203040,-0.13822171,0.00008993,0.00032175,-0.000332
 31,-0.00000126,0.00000010,-0.00000159,-0.00000166,0.00000032,0.0000023
 2,-0.00000021,-0.00000130,0.00000132,-0.00000026,-0.00000278,0.0000018
 5,0.00000013,-0.00000004,0.00000002,0.00000098,0.00000093,0.00000102,-
 0.00000475,0.00000313,-0.00000071,-0.00000031,0.,-0.00000011,0.0000005
 2,-0.00000016,-0.00000008,0.00000166,0.00000049,0.00000053,0.00004910,
 0.00020561,-0.00027384,0.00131579,0.00252077,-0.00243287,0.13572201,0.
 08065180,0.13762113\\0.00001190,-0.00000093,0.00000851,0.00001086,-0.0
 0000769,-0.00000498,-0.00000644,-0.00000365,-0.00000244,-0.00000570,-0
 .00001147,-0.00000402,-0.00002523,0.00000603,-0.00001034,0.00004078,-0
 .00000280,0.00001336,0.00000330,0.00001487,0.00000619,-0.00000205,-0.0
 0000829,-0.00000036,-0.00000695,0.00000411,-0.00000723,0.00001414,0.00
 000225,0.00000253,-0.00000947,0.00000782,0.00000783,-0.00000209,0.0000
 0282,0.00000112,-0.00002252,0.00000477,-0.00000704,-0.00000055,-0.0000
 0613,0.00000212,0.00001207,-0.00000055,0.00000332,-0.00000815,0.000005
 89,0.00000353,0.00000812,-0.00001727,-0.00000572,-0.00000628,0.0000014
 2,0.00000635,-0.00000416,-0.00000758,-0.00000439,-0.00000213,0.0000060
 4,0.00000331,-0.00001098,0.00000790,-0.00000645,0.00000090,0.00000139,
 -0.00000545,0.00000063,0.00000267,-0.00000098,0.00000610,0.00000464,-0
 .00000362,0.00000270,0.00000522,0.00000049,0.00000397,0.00000302,0.000
 00247,-0.00000067,-0.00000340,0.00000259,0.00000097,-0.00000609,-0.000
 00029,-0.00000067,0.00000337,0.00000074,-0.00000185,0.00000028,0.00000
 279,0.00000049,0.00000227,0.00000082,-0.00000159,-0.00000479,0.0000008
 7,-0.00000087,-0.00000279,-0.00000078,0.00000142,-0.00000336,-0.000004
 85\\\@


 THE MOST SERIOUS THREAT TO THE SURVIVAL OF MANKIND IS NOT NOW
 IGNORANCE IN THE TRADITIONAL SENSE,
 BUT A MORALLY NEUTRAL, AN INSENSITIVE OR INHIBITED HUMAN INTELLIGENCE.

                     -- MARGO JEFFERSON IN NEWSWEEK, SEPTEMBER 2, 1974
 Job cpu time:  0 days  8 hours 46 minutes 21.7 seconds.
 File lengths (MBytes):  RWF=    861 Int=      0 D2E=      0 Chk=     20 Scr=      1
 Normal termination of Gaussian 09 at Fri Mar 22 23:39:01 2019.
