 Entering Gaussian System, Link 0=g09
 Initial command:
 /home/yuheng/proj/yuheng/g09/l1.exe /home/yuheng/proj/yuheng/g09_scratch/Gau-1480.inp -scrdir=/home/yuheng/proj/yuheng/g09_scratch/
 Entering Link 1 = /home/yuheng/proj/yuheng/g09/l1.exe PID=      1481.
  
 Copyright (c) 1988,1990,1992,1993,1995,1998,2003,2009,2010,
            Gaussian, Inc.  All Rights Reserved.
  
 This is part of the Gaussian(R) 09 program.  It is based on
 the Gaussian(R) 03 system (copyright 2003, Gaussian, Inc.),
 the Gaussian(R) 98 system (copyright 1998, Gaussian, Inc.),
 the Gaussian(R) 94 system (copyright 1995, Gaussian, Inc.),
 the Gaussian 92(TM) system (copyright 1992, Gaussian, Inc.),
 the Gaussian 90(TM) system (copyright 1990, Gaussian, Inc.),
 the Gaussian 88(TM) system (copyright 1988, Gaussian, Inc.),
 the Gaussian 86(TM) system (copyright 1986, Carnegie Mellon
 University), and the Gaussian 82(TM) system (copyright 1983,
 Carnegie Mellon University). Gaussian is a federally registered
 trademark of Gaussian, Inc.
  
 This software contains proprietary and confidential information,
 including trade secrets, belonging to Gaussian, Inc.
  
 This software is provided under written license and may be
 used, copied, transmitted, or stored only in accord with that
 written license.
  
 The following legend is applicable only to US Government
 contracts under FAR:
  
                    RESTRICTED RIGHTS LEGEND
  
 Use, reproduction and disclosure by the US Government is
 subject to restrictions as set forth in subparagraphs (a)
 and (c) of the Commercial Computer Software - Restricted
 Rights clause in FAR 52.227-19.
  
 Gaussian, Inc.
 340 Quinnipiac St., Bldg. 40, Wallingford CT 06492
  
  
 ---------------------------------------------------------------
 Warning -- This program may not be used in any manner that
 competes with the business of Gaussian, Inc. or will provide
 assistance to any competitor of Gaussian, Inc.  The licensee
 of this program is prohibited from giving any competitor of
 Gaussian, Inc. access to this program.  By using this program,
 the user acknowledges that Gaussian, Inc. is engaged in the
 business of creating and licensing software in the field of
 computational chemistry and represents and warrants to the
 licensee that it is not a competitor of Gaussian, Inc. and that
 it will not use this program in any manner prohibited above.
 ---------------------------------------------------------------
  

 Cite this work as:
 Gaussian 09, Revision B.01,
 M. J. Frisch, G. W. Trucks, H. B. Schlegel, G. E. Scuseria, 
 M. A. Robb, J. R. Cheeseman, G. Scalmani, V. Barone, B. Mennucci, 
 G. A. Petersson, H. Nakatsuji, M. Caricato, X. Li, H. P. Hratchian, 
 A. F. Izmaylov, J. Bloino, G. Zheng, J. L. Sonnenberg, M. Hada, 
 M. Ehara, K. Toyota, R. Fukuda, J. Hasegawa, M. Ishida, T. Nakajima, 
 Y. Honda, O. Kitao, H. Nakai, T. Vreven, J. A. Montgomery, Jr., 
 J. E. Peralta, F. Ogliaro, M. Bearpark, J. J. Heyd, E. Brothers, 
 K. N. Kudin, V. N. Staroverov, T. Keith, R. Kobayashi, J. Normand, 
 K. Raghavachari, A. Rendell, J. C. Burant, S. S. Iyengar, J. Tomasi, 
 M. Cossi, N. Rega, J. M. Millam, M. Klene, J. E. Knox, J. B. Cross, 
 V. Bakken, C. Adamo, J. Jaramillo, R. Gomperts, R. E. Stratmann, 
 O. Yazyev, A. J. Austin, R. Cammi, C. Pomelli, J. W. Ochterski, 
 R. L. Martin, K. Morokuma, V. G. Zakrzewski, G. A. Voth, 
 P. Salvador, J. J. Dannenberg, S. Dapprich, A. D. Daniels, 
 O. Farkas, J. B. Foresman, J. V. Ortiz, J. Cioslowski, 
 and D. J. Fox, Gaussian, Inc., Wallingford CT, 2010.
 
 ******************************************
 Gaussian 09:  EM64L-G09RevB.01 12-Aug-2010
                22-Mar-2019 
 ******************************************
 %mem=16gb
 %nprocshared=20
 Will use up to   20 processors via shared memory.
 %chk=1b-conf-4.chk
 ----------------------------------------------------------------------
 # m062x/6-31+G(d,p) opt freq=noraman integral(ultrafinegrid) scrf=(ief
 pcm,read,solvent=methanol)
 ----------------------------------------------------------------------
 1/14=-1,18=20,19=15,26=3,38=1,40=2/1,3;
 2/9=110,12=2,17=6,18=5,40=1/2;
 3/5=1,6=6,7=111,11=2,16=1,25=1,30=1,70=2203,71=1,72=3,74=-55,75=-5/1,2,3;
 4//1;
 5/5=2,38=5,53=3/2;
 6/7=2,8=2,9=2,10=2,28=1/1;
 7//1,2,3,16;
 1/14=-1,18=20,19=15/3(2);
 2/9=110/2;
 99//99;
 2/9=110/2;
 3/5=1,6=6,7=111,11=2,16=1,25=1,30=1,70=2205,71=1,72=3,74=-55,75=-5/1,2,3;
 4/5=5,16=3/1;
 5/5=2,38=5,53=3/2;
 7//1,2,3,16;
 1/14=-1,18=20,19=15/3(-5);
 2/9=110/2;
 6/7=2,8=2,9=2,10=2,19=2,28=1/1;
 99/9=1/99;
 ----------------------------------------------------------------------
 Candidate Structure: 1b, Conformer: 4 geometry optimization and freque
 ncy calculation with methanol solvation
 ----------------------------------------------------------------------
 Symbolic Z-matrix:
 Charge =  0 Multiplicity = 1
 O                    -1.62368   0.62026  -1.92508 
 C                    -1.94149   1.90784  -1.59953 
 C                    -1.01404   2.78311  -0.9664 
 C                     0.37785   2.39135  -0.60933 
 N                     0.90901   1.28036  -0.92979 
 C                     2.27659   1.28547  -0.46648 
 C                     3.237     1.26989  -1.6864 
 O                     3.01202   0.01594  -2.30529 
 C                     2.99512   2.38295  -2.74438 
 C                     4.22408   2.74257  -3.58415 
 O                     3.87345   3.33571  -4.75528 
 O                     5.385     2.57089  -3.22434 
 C                     2.34444   2.4876    0.49387 
 C                     3.62182   3.34376   0.51183 
 O                     1.1999    3.21662   0.10746 
 C                    -1.41873   4.10025  -0.65364 
 C                    -2.71723   4.54447  -0.96359 
 Cl                   -3.19083   6.15665  -0.57425 
 C                    -3.62841   3.67568  -1.59053 
 C                    -3.23988   2.36063  -1.90673 
 H                    -0.72263   0.4383   -1.66825 
 H                     2.4675    0.3867    0.1247 
 H                     4.26711   1.29043  -1.32656 
 H                     2.07121  -0.11197  -2.29688 
 H                     2.68487   3.30743  -2.26184 
 H                     2.16866   2.11186  -3.40258 
 H                     4.655     3.55217  -5.23985 
 H                     2.16225   2.13035   1.50949 
 H                     3.53679   4.13499   1.25683 
 H                     4.49139   2.74099   0.77465 
 H                     3.82506   3.82548  -0.44225 
 H                    -0.7344    4.78432  -0.17305 
 H                    -4.62514   4.01751  -1.82802 
 H                    -3.94225   1.69457  -2.38678 
 

 GradGradGradGradGradGradGradGradGradGradGradGradGradGradGradGradGradGrad
 Berny optimization.
 Initialization pass.
                           ----------------------------
                           !    Initial Parameters    !
                           ! (Angstroms and Degrees)  !
 --------------------------                            --------------------------
 ! Name  Definition              Value          Derivative Info.                !
 --------------------------------------------------------------------------------
 ! R1    R(1,2)                  1.3656         estimate D2E/DX2                !
 ! R2    R(1,21)                 0.9544         estimate D2E/DX2                !
 ! R3    R(2,3)                  1.4238         estimate D2E/DX2                !
 ! R4    R(2,20)                 1.409          estimate D2E/DX2                !
 ! R5    R(3,4)                  1.4894         estimate D2E/DX2                !
 ! R6    R(3,16)                 1.413          estimate D2E/DX2                !
 ! R7    R(4,5)                  1.2725         estimate D2E/DX2                !
 ! R8    R(4,15)                 1.3677         estimate D2E/DX2                !
 ! R9    R(5,6)                  1.4439         estimate D2E/DX2                !
 ! R10   R(6,7)                  1.5527         estimate D2E/DX2                !
 ! R11   R(6,13)                 1.5401         estimate D2E/DX2                !
 ! R12   R(6,22)                 1.0926         estimate D2E/DX2                !
 ! R13   R(7,8)                  1.4164         estimate D2E/DX2                !
 ! R14   R(7,9)                  1.5546         estimate D2E/DX2                !
 ! R15   R(7,23)                 1.0913         estimate D2E/DX2                !
 ! R16   R(8,24)                 0.9495         estimate D2E/DX2                !
 ! R17   R(9,10)                 1.5313         estimate D2E/DX2                !
 ! R18   R(9,25)                 1.088          estimate D2E/DX2                !
 ! R19   R(9,26)                 1.0908         estimate D2E/DX2                !
 ! R20   R(10,11)                1.3588         estimate D2E/DX2                !
 ! R21   R(10,12)                1.2275         estimate D2E/DX2                !
 ! R22   R(11,27)                0.9447         estimate D2E/DX2                !
 ! R23   R(13,14)                1.5379         estimate D2E/DX2                !
 ! R24   R(13,15)                1.4109         estimate D2E/DX2                !
 ! R25   R(13,28)                1.0919         estimate D2E/DX2                !
 ! R26   R(14,29)                1.0901         estimate D2E/DX2                !
 ! R27   R(14,30)                1.0902         estimate D2E/DX2                !
 ! R28   R(14,31)                1.0879         estimate D2E/DX2                !
 ! R29   R(16,17)                1.4069         estimate D2E/DX2                !
 ! R30   R(16,32)                1.0804         estimate D2E/DX2                !
 ! R31   R(17,18)                1.7248         estimate D2E/DX2                !
 ! R32   R(17,19)                1.4064         estimate D2E/DX2                !
 ! R33   R(19,20)                1.4072         estimate D2E/DX2                !
 ! R34   R(19,33)                1.0801         estimate D2E/DX2                !
 ! R35   R(20,34)                1.0805         estimate D2E/DX2                !
 ! A1    A(2,1,21)             109.5909         estimate D2E/DX2                !
 ! A2    A(1,2,3)              122.2795         estimate D2E/DX2                !
 ! A3    A(1,2,20)             117.7418         estimate D2E/DX2                !
 ! A4    A(3,2,20)             119.9783         estimate D2E/DX2                !
 ! A5    A(2,3,4)              123.6189         estimate D2E/DX2                !
 ! A6    A(2,3,16)             119.0077         estimate D2E/DX2                !
 ! A7    A(4,3,16)             117.3734         estimate D2E/DX2                !
 ! A8    A(3,4,5)              124.0127         estimate D2E/DX2                !
 ! A9    A(3,4,15)             121.9123         estimate D2E/DX2                !
 ! A10   A(5,4,15)             114.0748         estimate D2E/DX2                !
 ! A11   A(4,5,6)              108.147          estimate D2E/DX2                !
 ! A12   A(5,6,7)              109.4937         estimate D2E/DX2                !
 ! A13   A(5,6,13)             104.1559         estimate D2E/DX2                !
 ! A14   A(5,6,22)             109.6451         estimate D2E/DX2                !
 ! A15   A(7,6,13)             118.0668         estimate D2E/DX2                !
 ! A16   A(7,6,22)             107.9863         estimate D2E/DX2                !
 ! A17   A(13,6,22)            107.2768         estimate D2E/DX2                !
 ! A18   A(6,7,8)              104.711          estimate D2E/DX2                !
 ! A19   A(6,7,9)              115.5486         estimate D2E/DX2                !
 ! A20   A(6,7,23)             108.9412         estimate D2E/DX2                !
 ! A21   A(8,7,9)              108.1678         estimate D2E/DX2                !
 ! A22   A(8,7,23)             108.0993         estimate D2E/DX2                !
 ! A23   A(9,7,23)             110.9642         estimate D2E/DX2                !
 ! A24   A(7,8,24)             105.8295         estimate D2E/DX2                !
 ! A25   A(7,9,10)             114.613          estimate D2E/DX2                !
 ! A26   A(7,9,25)             110.5427         estimate D2E/DX2                !
 ! A27   A(7,9,26)             110.5251         estimate D2E/DX2                !
 ! A28   A(10,9,25)            105.8145         estimate D2E/DX2                !
 ! A29   A(10,9,26)            109.6052         estimate D2E/DX2                !
 ! A30   A(25,9,26)            105.2337         estimate D2E/DX2                !
 ! A31   A(9,10,11)            111.5971         estimate D2E/DX2                !
 ! A32   A(9,10,12)            124.4335         estimate D2E/DX2                !
 ! A33   A(11,10,12)           123.9012         estimate D2E/DX2                !
 ! A34   A(10,11,27)           109.1857         estimate D2E/DX2                !
 ! A35   A(6,13,14)            118.5816         estimate D2E/DX2                !
 ! A36   A(6,13,15)            101.3493         estimate D2E/DX2                !
 ! A37   A(6,13,28)            108.4971         estimate D2E/DX2                !
 ! A38   A(14,13,15)           112.9128         estimate D2E/DX2                !
 ! A39   A(14,13,28)           108.0514         estimate D2E/DX2                !
 ! A40   A(15,13,28)           106.7647         estimate D2E/DX2                !
 ! A41   A(13,14,29)           110.321          estimate D2E/DX2                !
 ! A42   A(13,14,30)           110.9484         estimate D2E/DX2                !
 ! A43   A(13,14,31)           113.0438         estimate D2E/DX2                !
 ! A44   A(29,14,30)           107.3832         estimate D2E/DX2                !
 ! A45   A(29,14,31)           107.0094         estimate D2E/DX2                !
 ! A46   A(30,14,31)           107.8912         estimate D2E/DX2                !
 ! A47   A(4,15,13)            108.6215         estimate D2E/DX2                !
 ! A48   A(3,16,17)            120.657          estimate D2E/DX2                !
 ! A49   A(3,16,32)            120.483          estimate D2E/DX2                !
 ! A50   A(17,16,32)           118.86           estimate D2E/DX2                !
 ! A51   A(16,17,18)           119.9208         estimate D2E/DX2                !
 ! A52   A(16,17,19)           120.072          estimate D2E/DX2                !
 ! A53   A(18,17,19)           120.0072         estimate D2E/DX2                !
 ! A54   A(17,19,20)           119.904          estimate D2E/DX2                !
 ! A55   A(17,19,33)           120.0227         estimate D2E/DX2                !
 ! A56   A(20,19,33)           120.0733         estimate D2E/DX2                !
 ! A57   A(2,20,19)            120.3809         estimate D2E/DX2                !
 ! A58   A(2,20,34)            119.8546         estimate D2E/DX2                !
 ! A59   A(19,20,34)           119.7645         estimate D2E/DX2                !
 ! D1    D(21,1,2,3)            -0.3127         estimate D2E/DX2                !
 ! D2    D(21,1,2,20)          179.9201         estimate D2E/DX2                !
 ! D3    D(1,2,3,4)              0.4268         estimate D2E/DX2                !
 ! D4    D(1,2,3,16)          -179.6516         estimate D2E/DX2                !
 ! D5    D(20,2,3,4)          -179.8111         estimate D2E/DX2                !
 ! D6    D(20,2,3,16)            0.1105         estimate D2E/DX2                !
 ! D7    D(1,2,20,19)          179.7282         estimate D2E/DX2                !
 ! D8    D(1,2,20,34)           -0.1984         estimate D2E/DX2                !
 ! D9    D(3,2,20,19)           -0.0446         estimate D2E/DX2                !
 ! D10   D(3,2,20,34)         -179.9711         estimate D2E/DX2                !
 ! D11   D(2,3,4,5)              5.9626         estimate D2E/DX2                !
 ! D12   D(2,3,4,15)          -173.8704         estimate D2E/DX2                !
 ! D13   D(16,3,4,5)          -173.9602         estimate D2E/DX2                !
 ! D14   D(16,3,4,15)            6.2067         estimate D2E/DX2                !
 ! D15   D(2,3,16,17)           -0.1            estimate D2E/DX2                !
 ! D16   D(2,3,16,32)          179.9902         estimate D2E/DX2                !
 ! D17   D(4,3,16,17)          179.8265         estimate D2E/DX2                !
 ! D18   D(4,3,16,32)           -0.0832         estimate D2E/DX2                !
 ! D19   D(3,4,5,6)            177.4094         estimate D2E/DX2                !
 ! D20   D(15,4,5,6)            -2.7459         estimate D2E/DX2                !
 ! D21   D(3,4,15,13)          169.4584         estimate D2E/DX2                !
 ! D22   D(5,4,15,13)          -10.39           estimate D2E/DX2                !
 ! D23   D(4,5,6,7)           -113.7585         estimate D2E/DX2                !
 ! D24   D(4,5,6,13)            13.4003         estimate D2E/DX2                !
 ! D25   D(4,5,6,22)           127.9357         estimate D2E/DX2                !
 ! D26   D(5,6,7,8)            -65.4711         estimate D2E/DX2                !
 ! D27   D(5,6,7,9)             53.3979         estimate D2E/DX2                !
 ! D28   D(5,6,7,23)           179.0815         estimate D2E/DX2                !
 ! D29   D(13,6,7,8)           175.6631         estimate D2E/DX2                !
 ! D30   D(13,6,7,9)           -65.4679         estimate D2E/DX2                !
 ! D31   D(13,6,7,23)           60.2156         estimate D2E/DX2                !
 ! D32   D(22,6,7,8)            53.8621         estimate D2E/DX2                !
 ! D33   D(22,6,7,9)           172.7311         estimate D2E/DX2                !
 ! D34   D(22,6,7,23)          -61.5854         estimate D2E/DX2                !
 ! D35   D(5,6,13,14)         -142.4882         estimate D2E/DX2                !
 ! D36   D(5,6,13,15)          -18.325          estimate D2E/DX2                !
 ! D37   D(5,6,13,28)           93.8457         estimate D2E/DX2                !
 ! D38   D(7,6,13,14)          -20.8532         estimate D2E/DX2                !
 ! D39   D(7,6,13,15)          103.31           estimate D2E/DX2                !
 ! D40   D(7,6,13,28)         -144.5193         estimate D2E/DX2                !
 ! D41   D(22,6,13,14)         101.309          estimate D2E/DX2                !
 ! D42   D(22,6,13,15)        -134.5279         estimate D2E/DX2                !
 ! D43   D(22,6,13,28)         -22.3572         estimate D2E/DX2                !
 ! D44   D(6,7,8,24)            42.3449         estimate D2E/DX2                !
 ! D45   D(9,7,8,24)           -81.3966         estimate D2E/DX2                !
 ! D46   D(23,7,8,24)          158.3773         estimate D2E/DX2                !
 ! D47   D(6,7,9,10)           155.3191         estimate D2E/DX2                !
 ! D48   D(6,7,9,25)            35.8612         estimate D2E/DX2                !
 ! D49   D(6,7,9,26)           -80.2372         estimate D2E/DX2                !
 ! D50   D(8,7,9,10)           -87.7382         estimate D2E/DX2                !
 ! D51   D(8,7,9,25)           152.8039         estimate D2E/DX2                !
 ! D52   D(8,7,9,26)            36.7055         estimate D2E/DX2                !
 ! D53   D(23,7,9,10)           30.6782         estimate D2E/DX2                !
 ! D54   D(23,7,9,25)          -88.7797         estimate D2E/DX2                !
 ! D55   D(23,7,9,26)          155.1219         estimate D2E/DX2                !
 ! D56   D(7,9,10,11)          158.4012         estimate D2E/DX2                !
 ! D57   D(7,9,10,12)          -24.5058         estimate D2E/DX2                !
 ! D58   D(25,9,10,11)         -79.5315         estimate D2E/DX2                !
 ! D59   D(25,9,10,12)          97.5616         estimate D2E/DX2                !
 ! D60   D(26,9,10,11)          33.472          estimate D2E/DX2                !
 ! D61   D(26,9,10,12)        -149.4349         estimate D2E/DX2                !
 ! D62   D(9,10,11,27)         179.2999         estimate D2E/DX2                !
 ! D63   D(12,10,11,27)          2.1885         estimate D2E/DX2                !
 ! D64   D(6,13,14,29)        -178.3022         estimate D2E/DX2                !
 ! D65   D(6,13,14,30)         -59.4265         estimate D2E/DX2                !
 ! D66   D(6,13,14,31)          61.9276         estimate D2E/DX2                !
 ! D67   D(15,13,14,29)         63.4313         estimate D2E/DX2                !
 ! D68   D(15,13,14,30)       -177.6929         estimate D2E/DX2                !
 ! D69   D(15,13,14,31)        -56.3388         estimate D2E/DX2                !
 ! D70   D(28,13,14,29)        -54.416          estimate D2E/DX2                !
 ! D71   D(28,13,14,30)         64.4597         estimate D2E/DX2                !
 ! D72   D(28,13,14,31)       -174.1862         estimate D2E/DX2                !
 ! D73   D(6,13,15,4)           17.3008         estimate D2E/DX2                !
 ! D74   D(14,13,15,4)         145.2227         estimate D2E/DX2                !
 ! D75   D(28,13,15,4)         -96.1782         estimate D2E/DX2                !
 ! D76   D(3,16,17,18)        -179.9568         estimate D2E/DX2                !
 ! D77   D(3,16,17,19)           0.0228         estimate D2E/DX2                !
 ! D78   D(32,16,17,18)         -0.0456         estimate D2E/DX2                !
 ! D79   D(32,16,17,19)        179.934          estimate D2E/DX2                !
 ! D80   D(16,17,19,20)          0.0449         estimate D2E/DX2                !
 ! D81   D(16,17,19,33)        179.9932         estimate D2E/DX2                !
 ! D82   D(18,17,19,20)       -179.9755         estimate D2E/DX2                !
 ! D83   D(18,17,19,33)         -0.0273         estimate D2E/DX2                !
 ! D84   D(17,19,20,2)          -0.0337         estimate D2E/DX2                !
 ! D85   D(17,19,20,34)        179.8929         estimate D2E/DX2                !
 ! D86   D(33,19,20,2)        -179.982          estimate D2E/DX2                !
 ! D87   D(33,19,20,34)         -0.0554         estimate D2E/DX2                !
 --------------------------------------------------------------------------------
 Trust Radius=3.00D-01 FncErr=1.00D-07 GrdErr=1.00D-06
 Number of steps in this run=    191 maximum allowed number of steps=    204.
 GradGradGradGradGradGradGradGradGradGradGradGradGradGradGradGradGradGrad

                          Input orientation:                          
 ---------------------------------------------------------------------
 Center     Atomic      Atomic             Coordinates (Angstroms)
 Number     Number       Type             X           Y           Z
 ---------------------------------------------------------------------
      1          8           0       -1.623675    0.620258   -1.925084
      2          6           0       -1.941486    1.907836   -1.599525
      3          6           0       -1.014035    2.783109   -0.966403
      4          6           0        0.377853    2.391351   -0.609327
      5          7           0        0.909014    1.280358   -0.929788
      6          6           0        2.276592    1.285471   -0.466480
      7          6           0        3.237000    1.269893   -1.686399
      8          8           0        3.012021    0.015935   -2.305290
      9          6           0        2.995116    2.382951   -2.744381
     10          6           0        4.224084    2.742567   -3.584148
     11          8           0        3.873452    3.335709   -4.755283
     12          8           0        5.384997    2.570886   -3.224337
     13          6           0        2.344435    2.487599    0.493874
     14          6           0        3.621816    3.343762    0.511828
     15          8           0        1.199898    3.216622    0.107455
     16          6           0       -1.418728    4.100245   -0.653643
     17          6           0       -2.717231    4.544465   -0.963588
     18         17           0       -3.190830    6.156645   -0.574254
     19          6           0       -3.628408    3.675678   -1.590526
     20          6           0       -3.239883    2.360634   -1.906729
     21          1           0       -0.722632    0.438304   -1.668245
     22          1           0        2.467500    0.386695    0.124701
     23          1           0        4.267107    1.290428   -1.326563
     24          1           0        2.071208   -0.111966   -2.296876
     25          1           0        2.684874    3.307429   -2.261839
     26          1           0        2.168662    2.111861   -3.402581
     27          1           0        4.654997    3.552169   -5.239850
     28          1           0        2.162254    2.130348    1.509491
     29          1           0        3.536790    4.134990    1.256830
     30          1           0        4.491395    2.740993    0.774653
     31          1           0        3.825060    3.825475   -0.442250
     32          1           0       -0.734400    4.784317   -0.173053
     33          1           0       -4.625135    4.017514   -1.828018
     34          1           0       -3.942252    1.694568   -2.386781
 ---------------------------------------------------------------------
                    Distance matrix (angstroms):
                    1          2          3          4          5
     1  O    0.000000
     2  C    1.365595   0.000000
     3  C    2.443083   1.423767   0.000000
     4  C    2.978943   2.567803   1.489406   0.000000
     5  N    2.800154   2.994600   2.440844   1.272451   0.000000
     6  C    4.216885   4.411724   3.649804   2.201950   1.443936
     7  C    4.909700   5.218356   4.569411   3.254608   2.447874
     8  O    4.690356   5.349264   5.065471   3.931632   2.813078
     9  C    5.011144   5.089840   4.403933   3.377661   2.976622
    10  C    6.438398   6.530678   5.855948   4.875080   4.491478
    11  O    6.752933   6.768392   6.208744   5.504541   5.258020
    12  O    7.390162   7.533724   6.789029   5.651726   5.192768
    13  C    5.008415   4.804952   3.674106   2.256936   2.354714
    14  C    6.393058   6.121276   4.898021   3.561934   3.700701
    15  O    4.341070   3.807229   2.498520   1.367701   2.215763
    16  C    3.710643   2.444305   1.412955   2.479917   3.666934
    17  C    4.185659   2.820994   2.450155   3.786944   4.879056
    18  Cl   5.910355   4.545813   4.033976   5.187887   6.380697
    19  C    3.669670   2.443574   2.832164   4.319997   5.173232
    20  C    2.375158   1.408984   2.452977   3.843463   4.397130
    21  H    0.954438   1.910459   2.464875   2.479267   1.979051
    22  H    4.581908   4.972523   4.365134   2.987318   2.083137
    23  H    5.958915   6.245184   5.499843   4.105211   3.381467
    24  H    3.785042   4.546165   4.435126   3.461484   2.271165
    25  H    5.088997   4.878599   3.954111   2.982003   3.006170
    26  H    4.334708   4.492878   4.063877   3.329772   2.897036
    27  H    7.681504   7.711640   7.140849   6.409618   6.145742
    28  H    5.330097   5.153268   4.079824   2.782373   2.871093
    29  H    7.007733   6.567381   5.242171   4.062229   4.453698
    30  H    7.012858   6.907447   5.774323   4.354179   4.227532
    31  H    6.493145   6.186249   4.977761   3.737360   3.901107
    32  H    4.604325   3.430164   2.170814   2.674645   3.943499
    33  H    4.534262   3.421246   3.912311   5.399954   6.239042
    34  H    2.596749   2.160629   3.431742   4.723151   5.082242
                    6          7          8          9         10
     6  C    0.000000
     7  C    1.552684   0.000000
     8  O    2.352403   1.416352   0.000000
     9  C    2.628606   1.554584   2.407457   0.000000
    10  C    3.954201   2.597028   3.246397   1.531305   0.000000
    11  O    5.014705   3.753760   4.214906   2.392269   1.358793
    12  O    4.349741   2.944780   3.606028   2.444833   1.227460
    13  C    1.540128   2.651994   3.793430   3.304638   4.497594
    14  C    2.646370   3.046509   4.402549   3.452363   4.183441
    15  O    2.284298   3.340277   4.398810   3.471424   4.795661
    16  C    4.649018   5.545564   6.248285   5.177094   6.501729
    17  C    5.983847   6.833604   7.425098   6.361940   7.635183
    18  Cl   7.323432   8.150718   8.898324   7.564135   8.700364
    19  C    6.468817   7.275357   7.615767   6.846429   8.155174
    20  C    5.801878   6.571779   6.689004   6.291055   7.659661
    21  H    3.340251   4.046054   3.812067   4.331440   5.783624
    22  H    1.092584   2.156908   2.517702   3.534834   4.731943
    23  H    2.168390   1.091340   2.038990   2.195854   2.684632
    24  H    2.312004   1.908216   0.949504   2.697865   3.800040
    25  H    2.734652   2.188042   3.307997   1.088006   2.106356
    26  H    3.052091   2.189871   2.511615   1.090754   2.157665
    27  H    5.794807   4.454943   4.880160   3.217086   1.892747
    28  H    2.152058   3.479824   4.443580   4.341992   5.529115
    29  H    3.560569   4.118404   5.470895   4.401448   5.083924
    30  H    2.926484   3.129604   4.370416   3.840657   4.366990
    31  H    2.974888   2.902537   4.317933   2.840685   3.347153
    32  H    4.625375   5.514835   6.428030   5.127141   6.355382
    33  H    7.546634   8.329624   8.635194   7.847276   9.111430
    34  H    6.521421   7.225825   7.154465   6.980603   8.319918
                   11         12         13         14         15
    11  O    0.000000
    12  O    2.283313   0.000000
    13  C    5.532706   4.803858   0.000000
    14  C    5.273125   4.202984   1.537869   0.000000
    15  O    5.550522   5.388216   1.410943   2.458733   0.000000
    16  C    6.739075   7.432233   4.251919   5.228544   2.866577
    17  C    7.699035   8.640145   5.654676   6.618312   4.272493
    18  Cl   8.680021   9.665682   6.726214   7.450103   5.327941
    19  C    8.149182   9.226666   6.436700   7.556177   5.138717
    20  C    7.724284   8.727477   6.079772   7.341585   4.949880
    21  H    6.248900   6.653755   4.275660   5.662917   3.816842
    22  H    5.872617   4.949599   2.136640   3.197899   3.100903
    23  H    4.011765   2.547704   2.905835   2.830594   3.895433
    24  H    4.601990   4.363379   3.823699   4.715428   4.197557
    25  H    2.762387   2.959656   2.895164   2.927868   2.797669
    26  H    2.496781   3.253811   3.918474   4.353370   3.805175
    27  H    0.944708   2.357564   6.272766   5.847452   6.375262
    28  H    6.605186   5.743629   1.091923   2.144301   2.017876
    29  H    6.074347   5.093442   2.172029   1.090091   2.761436
    30  H    5.596046   4.101144   2.180019   1.090218   3.391951
    31  H    4.341021   3.427449   2.204198   1.087943   2.750337
    32  H    6.657897   7.187255   3.898581   4.639060   2.505566
    33  H    9.014417  10.210053   7.503781   8.598897   6.190193
    34  H    8.329968   9.405690   6.960568   8.266614   5.914353
                   16         17         18         19         20
    16  C    0.000000
    17  C    1.406950   0.000000
    18  Cl   2.715774   1.724819   0.000000
    19  C    2.437354   1.406444   2.716520   0.000000
    20  C    2.813019   2.435528   4.023381   1.407223   0.000000
    21  H    3.863131   4.619039   6.323626   4.350881   3.176284
    22  H    5.431302   6.734453   8.111569   7.135791   6.371606
    23  H    6.377822   7.713721   8.936826   8.252166   7.605053
    24  H    5.711619   6.810958   8.363728   6.879738   5.871427
    25  H    4.478214   5.691964   6.744618   6.359544   6.010430
    26  H    4.937580   5.978143   7.285868   6.271769   5.617101
    27  H    7.630453   8.580257   9.492528   9.052492   8.652085
    28  H    4.624184   5.979419   7.014882   6.747586   6.395833
    29  H    5.311146   6.649113   7.259534   7.723889   7.686335
    30  H    6.230341   7.631401   8.514858   8.508755   8.191895
    31  H    5.255235   6.602296   7.394220   7.542888   7.362328
    32  H    1.080382   2.148044   2.842234   3.407872   3.893240
    33  H    3.415706   2.159864   2.864443   1.080148   2.161104
    34  H    3.893485   3.412927   4.874425   2.158082   1.080470
                   21         22         23         24         25
    21  H    0.000000
    22  H    3.659817   0.000000
    23  H    5.073496   2.482234   0.000000
    24  H    2.916079   2.503946   2.780322   0.000000
    25  H    4.493921   3.778030   2.728827   3.474201   0.000000
    26  H    3.764080   3.937921   3.063996   2.485455   1.731228
    27  H    7.167385   6.601801   4.536491   5.363110   3.579083
    28  H    4.613414   2.247475   3.630299   4.418675   3.985170
    29  H    6.353285   4.058918   3.911370   5.728297   3.713711
    30  H    6.201307   3.171956   2.563114   4.840555   3.578359
    31  H    5.801508   3.740269   2.721007   4.692449   2.208914
    32  H    4.596038   5.447926   6.209100   6.029564   4.270323
    33  H    5.297717   8.203745   9.314528   7.881208   7.357218
    34  H    3.529936   7.007353   8.287398   6.279598   6.821710
                   26         27         28         29         30
    26  H    0.000000
    27  H    3.410558   0.000000
    28  H    4.912111   7.334095   0.000000
    29  H    5.260697   6.617924   2.443722   0.000000
    30  H    4.820807   6.071163   2.517493   1.756984   0.000000
    31  H    3.800485   4.876521   3.073707   1.750935   1.760953
    32  H    5.098984   7.499081   4.273770   4.550742   5.690541
    33  H    7.229553   9.898383   7.795448   8.726231   9.566322
    34  H    6.208804   9.246803   7.255056   8.669927   9.067308
                   31         32         33         34
    31  H    0.000000
    32  H    4.666961   0.000000
    33  H    8.565222   4.297059   0.000000
    34  H    8.285717   4.973676   2.484879   0.000000
 Stoichiometry    C13H14ClNO5
 Framework group  C1[X(C13H14ClNO5)]
 Deg. of freedom    96
 Full point group                 C1      NOp   1
 Largest Abelian subgroup         C1      NOp   1
 Largest concise Abelian subgroup C1      NOp   1
                         Standard orientation:                         
 ---------------------------------------------------------------------
 Center     Atomic      Atomic             Coordinates (Angstroms)
 Number     Number       Type             X           Y           Z
 ---------------------------------------------------------------------
      1          8           0       -1.366075    2.867683    0.210426
      2          6           0       -2.112601    1.724661    0.242822
      3          6           0       -1.629749    0.486410   -0.267766
      4          6           0       -0.278947    0.313691   -0.870951
      5          7           0        0.612811    1.221152   -0.891303
      6          6           0        1.801216    0.670292   -1.498918
      7          6           0        2.935156    0.591723   -0.441168
      8          8           0        3.220064    1.941056   -0.118401
      9          6           0        2.574988   -0.155524    0.873607
     10          6           0        3.774696   -0.742035    1.623007
     11          8           0        3.490948   -0.951605    2.935213
     12          8           0        4.842873   -1.040881    1.097321
     13          6           0        1.320199   -0.642671   -2.144476
     14          6           0        2.252681   -1.865053   -2.108411
     15          8           0        0.104566   -0.858761   -1.461614
     16          6           0       -2.463932   -0.652327   -0.205641
     17          6           0       -3.752218   -0.568239    0.353603
     18         17           0       -4.754177   -1.970582    0.420785
     19          6           0       -4.222990    0.657401    0.857853
     20          6           0       -3.403891    1.800281    0.801467
     21          1           0       -0.518083    2.684906   -0.187638
     22          1           0        2.137916    1.324641   -2.306507
     23          1           0        3.823217    0.159355   -0.905311
     24          1           0        2.377810    2.373306   -0.045424
     25          1           0        1.915038   -0.995455    0.666873
     26          1           0        2.009362    0.495866    1.541067
     27          1           0        4.248170   -1.322601    3.361183
     28          1           0        1.064566   -0.442756   -3.187060
     29          1           0        1.793447   -2.706938   -2.626710
     30          1           0        3.196839   -1.649970   -2.609290
     31          1           0        2.478829   -2.198492   -1.097820
     32          1           0       -2.121723   -1.603809   -0.586170
     33          1           0       -5.212212    0.721079    1.286927
     34          1           0       -3.768483    2.741096    1.187932
 ---------------------------------------------------------------------
 Rotational constants (GHZ):      0.4779647      0.1531347      0.1474319
 Standard basis: 6-31+G(d,p) (6D, 7F)
 There are   454 symmetry adapted basis functions of A   symmetry.
 Integral buffers will be    131072 words long.
 Raffenetti 2 integral format.
 Two-electron integral symmetry is turned on.
   454 basis functions,   762 primitive gaussians,   454 cartesian basis functions
    78 alpha electrons       78 beta electrons
       nuclear repulsion energy      1685.0015076578 Hartrees.
 NAtoms=   34 NActive=   34 NUniq=   34 SFac= 1.00D+00 NAtFMM=   50 NAOKFM=F Big=F
 Using the following non-standard input for PCM:
 radii=UA0
 --- end of non-standard input.
 ------------------------------------------------------------------------------
 United Atom Topological Model (UA0  parameters set).
  Nord Group  Hybr  Charge Alpha Radius          Bonded to
    1   OH    *     0.00   1.10  1.850   C2   [s]
    2   C     *     0.00   1.10  1.925   O1   [s]  C3   [s]  C20  [s]
    3   C     *     0.00   1.10  1.925   C2   [s]  C4   [s]  C16  [s]
    4   C     *     0.00   1.10  1.925   C3   [s]  N5   [d]  O15  [s]
    5   N     *     0.00   1.10  1.830   C4   [d]  C6   [s]
    6   CH    *     0.00   1.10  2.125   N5   [s]  C7   [s]  C13  [s]
    7   CH    *     0.00   1.10  2.125   C6   [s]  O8   [s]  C9   [s]
    8   OH    *     0.00   1.10  1.850   C7   [s]
    9   CH2   *     0.00   1.10  2.325   C7   [s]  C10  [s]
   10   C     *     0.00   1.10  1.925   C9   [s]  O11  [s]  O12  [d]
   11   OH    *     0.00   1.10  1.850   C10  [s]
   12   O     *     0.00   1.10  1.750   C10  [d]
   13   CH    *     0.00   1.10  2.125   C6   [s]  C14  [s]  O15  [s]
   14   CH3   *     0.00   1.10  2.525   C13  [s]
   15   O     *     0.00   1.10  1.750   C4   [s]  C13  [s]
   16   CH    *     0.00   1.10  2.125   C3   [s]  C17  [s]
   17   C     *     0.00   1.10  1.925   C16  [s] Cl18  [s]  C19  [s]
   18  Cl     *     0.00   1.10  1.973   C17  [s]
   19   CH    *     0.00   1.10  2.125   C17  [s]  C20  [s]
   20   CH    *     0.00   1.10  2.125   C2   [s]  C19  [s]
 ------------------------------------------------------------------------------
 Polarizable Continuum Model (PCM)
 =================================
 Model                : PCM.
 Atomic radii         : UA0 (Simple United Atom Topological Model).
 Polarization charges : Total charges.
 Charge compensation  : None.
 Solution method      : Matrix inversion.
 Cavity type          : Scaled VdW (van der Waals Surface) (Alpha=1.100).
 Cavity algorithm     : GePol (No added spheres)
                        Default sphere list used, NSphG=   20.
                        Lebedev-Laikov grids with approx.  5.0 points / Ang**2.
                        Smoothing algorithm: Karplus/York (Gamma=1.0000).
                        Polarization charges: spherical gaussians, with
                                              point-specific exponents (IZeta= 3).
                        Self-potential: point-specific (ISelfS= 7).
                        Self-field    : sphere-specific E.n sum rule (ISelfD= 2).
 1st derivatives      : Analytical E(r).r(x)/FMM algorithm (CHGder, D1EAlg=3).
                        Cavity 1st derivative terms included.
 Solvent              : Methanol, Eps=  32.613000 Eps(inf)=   1.765709
 ------------------------------------------------------------------------------
 Spheres list:
 ISph  on   Nord    Re0     Alpha      Xe            Ye            Ze
    1   O      1    1.850   1.100     -1.366075      2.867683      0.210426
    2   C      2    1.925   1.100     -2.112601      1.724661      0.242822
    3   C      3    1.925   1.100     -1.629749      0.486410     -0.267766
    4   C      4    1.925   1.100     -0.278947      0.313691     -0.870951
    5   N      5    1.830   1.100      0.612811      1.221152     -0.891303
    6   C      6    2.125   1.100      1.801216      0.670292     -1.498918
    7   C      7    2.125   1.100      2.935156      0.591723     -0.441168
    8   O      8    1.850   1.100      3.220064      1.941056     -0.118401
    9   C      9    2.325   1.100      2.574988     -0.155524      0.873607
   10   C     10    1.925   1.100      3.774696     -0.742035      1.623007
   11   O     11    1.850   1.100      3.490948     -0.951605      2.935213
   12   O     12    1.750   1.100      4.842873     -1.040881      1.097321
   13   C     13    2.125   1.100      1.320199     -0.642671     -2.144476
   14   C     14    2.525   1.100      2.252681     -1.865053     -2.108411
   15   O     15    1.750   1.100      0.104566     -0.858761     -1.461614
   16   C     16    2.125   1.100     -2.463932     -0.652327     -0.205641
   17   C     17    1.925   1.100     -3.752218     -0.568239      0.353603
   18  Cl     18    1.973   1.100     -4.754177     -1.970582      0.420785
   19   C     19    2.125   1.100     -4.222990      0.657401      0.857853
   20   C     20    2.125   1.100     -3.403891      1.800281      0.801467
 ------------------------------------------------------------------------------
 One-electron integrals computed using PRISM.
 NBasis=   454 RedAO= T  NBF=   454
 NBsUse=   453 1.00D-06 NBFU=   453
 Harris functional with IExCor= 1009 diagonalized for initial guess.
 ExpMin= 4.38D-02 ExpMax= 2.52D+04 ExpMxC= 3.78D+03 IAcc=3 IRadAn=         5 AccDes= 0.00D+00
 HarFok:  IExCor= 1009 AccDes= 0.00D+00 IRadAn=         5 IDoV= 1
 ScaDFX=  1.000000  1.000000  1.000000  1.000000
 FoFCou: FMM=F IPFlag=           0 FMFlag=      100000 FMFlg1=           0
         NFxFlg=           0 DoJE=T BraDBF=F KetDBF=T FulRan=T
         Omega=  0.000000  0.000000  1.000000  0.000000  0.000000 ICntrl=     500 IOpCl=  0
         NMat0=    1 NMatS0=    1 NMatT0=    0 NMatD0=    1 NMtDS0=    0 NMtDT0=    0
         I1Cent=           4 NGrid=           0.
 Petite list used in FoFCou.
 Initial guess orbital symmetries:
       Occupied  (A) (A) (A) (A) (A) (A) (A) (A) (A) (A) (A) (A)
                 (A) (A) (A) (A) (A) (A) (A) (A) (A) (A) (A) (A)
                 (A) (A) (A) (A) (A) (A) (A) (A) (A) (A) (A) (A)
                 (A) (A) (A) (A) (A) (A) (A) (A) (A) (A) (A) (A)
                 (A) (A) (A) (A) (A) (A) (A) (A) (A) (A) (A) (A)
                 (A) (A) (A) (A) (A) (A) (A) (A) (A) (A) (A) (A)
                 (A) (A) (A) (A) (A) (A)
       Virtual   (A) (A) (A) (A) (A) (A) (A) (A) (A) (A) (A) (A)
                 (A) (A) (A) (A) (A) (A) (A) (A) (A) (A) (A) (A)
                 (A) (A) (A) (A) (A) (A) (A) (A) (A) (A) (A) (A)
                 (A) (A) (A) (A) (A) (A) (A) (A) (A) (A) (A) (A)
                 (A) (A) (A) (A) (A) (A) (A) (A) (A) (A) (A) (A)
                 (A) (A) (A) (A) (A) (A) (A) (A) (A) (A) (A) (A)
                 (A) (A) (A) (A) (A) (A) (A) (A) (A) (A) (A) (A)
                 (A) (A) (A) (A) (A) (A) (A) (A) (A) (A) (A) (A)
                 (A) (A) (A) (A) (A) (A) (A) (A) (A) (A) (A) (A)
                 (A) (A) (A) (A) (A) (A) (A) (A) (A) (A) (A) (A)
                 (A) (A) (A) (A) (A) (A) (A) (A) (A) (A) (A) (A)
                 (A) (A) (A) (A) (A) (A) (A) (A) (A) (A) (A) (A)
                 (A) (A) (A) (A) (A) (A) (A) (A) (A) (A) (A) (A)
                 (A) (A) (A) (A) (A) (A) (A) (A) (A) (A) (A) (A)
                 (A) (A) (A) (A) (A) (A) (A) (A) (A) (A) (A) (A)
                 (A) (A) (A) (A) (A) (A) (A) (A) (A) (A) (A) (A)
                 (A) (A) (A) (A) (A) (A) (A) (A) (A) (A) (A) (A)
                 (A) (A) (A) (A) (A) (A) (A) (A) (A) (A) (A) (A)
                 (A) (A) (A) (A) (A) (A) (A) (A) (A) (A) (A) (A)
                 (A) (A) (A) (A) (A) (A) (A) (A) (A) (A) (A) (A)
                 (A) (A) (A) (A) (A) (A) (A) (A) (A) (A) (A) (A)
                 (A) (A) (A) (A) (A) (A) (A) (A) (A) (A) (A) (A)
                 (A) (A) (A) (A) (A) (A) (A) (A) (A) (A) (A) (A)
                 (A) (A) (A) (A) (A) (A) (A) (A) (A) (A) (A) (A)
                 (A) (A) (A) (A) (A) (A) (A) (A) (A) (A) (A) (A)
                 (A) (A) (A) (A) (A) (A) (A) (A) (A) (A) (A) (A)
                 (A) (A) (A) (A) (A) (A) (A) (A) (A) (A) (A) (A)
                 (A) (A) (A) (A) (A) (A) (A) (A) (A) (A) (A) (A)
                 (A) (A) (A) (A) (A) (A) (A) (A) (A) (A) (A) (A)
                 (A) (A) (A) (A) (A) (A) (A) (A) (A) (A) (A) (A)
                 (A) (A) (A) (A) (A) (A) (A) (A) (A) (A) (A) (A)
                 (A) (A) (A)
 The electronic state of the initial guess is 1-A.
 Requested convergence on RMS density matrix=1.00D-08 within 128 cycles.
 Requested convergence on MAX density matrix=1.00D-06.
 Requested convergence on             energy=1.00D-06.
 No special actions if energy rises.
 Error on total polarization charges =  0.01503
 SCF Done:  E(RM062X) =  -1394.56010138     A.U. after   16 cycles
             Convg  =    0.4279D-08             -V/T =  2.0067

 **********************************************************************

            Population analysis using the SCF density.

 **********************************************************************

 Orbital symmetries:
       Occupied  (A) (A) (A) (A) (A) (A) (A) (A) (A) (A) (A) (A)
                 (A) (A) (A) (A) (A) (A) (A) (A) (A) (A) (A) (A)
                 (A) (A) (A) (A) (A) (A) (A) (A) (A) (A) (A) (A)
                 (A) (A) (A) (A) (A) (A) (A) (A) (A) (A) (A) (A)
                 (A) (A) (A) (A) (A) (A) (A) (A) (A) (A) (A) (A)
                 (A) (A) (A) (A) (A) (A) (A) (A) (A) (A) (A) (A)
                 (A) (A) (A) (A) (A) (A)
       Virtual   (A) (A) (A) (A) (A) (A) (A) (A) (A) (A) (A) (A)
                 (A) (A) (A) (A) (A) (A) (A) (A) (A) (A) (A) (A)
                 (A) (A) (A) (A) (A) (A) (A) (A) (A) (A) (A) (A)
                 (A) (A) (A) (A) (A) (A) (A) (A) (A) (A) (A) (A)
                 (A) (A) (A) (A) (A) (A) (A) (A) (A) (A) (A) (A)
                 (A) (A) (A) (A) (A) (A) (A) (A) (A) (A) (A) (A)
                 (A) (A) (A) (A) (A) (A) (A) (A) (A) (A) (A) (A)
                 (A) (A) (A) (A) (A) (A) (A) (A) (A) (A) (A) (A)
                 (A) (A) (A) (A) (A) (A) (A) (A) (A) (A) (A) (A)
                 (A) (A) (A) (A) (A) (A) (A) (A) (A) (A) (A) (A)
                 (A) (A) (A) (A) (A) (A) (A) (A) (A) (A) (A) (A)
                 (A) (A) (A) (A) (A) (A) (A) (A) (A) (A) (A) (A)
                 (A) (A) (A) (A) (A) (A) (A) (A) (A) (A) (A) (A)
                 (A) (A) (A) (A) (A) (A) (A) (A) (A) (A) (A) (A)
                 (A) (A) (A) (A) (A) (A) (A) (A) (A) (A) (A) (A)
                 (A) (A) (A) (A) (A) (A) (A) (A) (A) (A) (A) (A)
                 (A) (A) (A) (A) (A) (A) (A) (A) (A) (A) (A) (A)
                 (A) (A) (A) (A) (A) (A) (A) (A) (A) (A) (A) (A)
                 (A) (A) (A) (A) (A) (A) (A) (A) (A) (A) (A) (A)
                 (A) (A) (A) (A) (A) (A) (A) (A) (A) (A) (A) (A)
                 (A) (A) (A) (A) (A) (A) (A) (A) (A) (A) (A) (A)
                 (A) (A) (A) (A) (A) (A) (A) (A) (A) (A) (A) (A)
                 (A) (A) (A) (A) (A) (A) (A) (A) (A) (A) (A) (A)
                 (A) (A) (A) (A) (A) (A) (A) (A) (A) (A) (A) (A)
                 (A) (A) (A) (A) (A) (A) (A) (A) (A) (A) (A) (A)
                 (A) (A) (A) (A) (A) (A) (A) (A) (A) (A) (A) (A)
                 (A) (A) (A) (A) (A) (A) (A) (A) (A) (A) (A) (A)
                 (A) (A) (A) (A) (A) (A) (A) (A) (A) (A) (A) (A)
                 (A) (A) (A) (A) (A) (A) (A) (A) (A) (A) (A) (A)
                 (A) (A) (A) (A) (A) (A) (A) (A) (A) (A) (A) (A)
                 (A) (A) (A) (A) (A) (A) (A) (A) (A) (A) (A) (A)
                 (A) (A) (A)
 The electronic state is 1-A.
 Alpha  occ. eigenvalues -- -102.68309 -19.70202 -19.70090 -19.68364 -19.65876
 Alpha  occ. eigenvalues --  -19.65031 -14.77620 -10.71185 -10.68020 -10.65025
 Alpha  occ. eigenvalues --  -10.62721 -10.62422 -10.61987 -10.60085 -10.59574
 Alpha  occ. eigenvalues --  -10.58945 -10.58697 -10.57656 -10.57462 -10.55622
 Alpha  occ. eigenvalues --   -9.82992  -7.55394  -7.54733  -7.54722  -1.24581
 Alpha  occ. eigenvalues --   -1.24268  -1.19854  -1.16479  -1.15115  -1.04568
 Alpha  occ. eigenvalues --   -1.00960  -0.95505  -0.92215  -0.88444  -0.86981
 Alpha  occ. eigenvalues --   -0.83689  -0.81468  -0.77359  -0.73676  -0.72319
 Alpha  occ. eigenvalues --   -0.69901  -0.68649  -0.67694  -0.63627  -0.61416
 Alpha  occ. eigenvalues --   -0.60966  -0.59512  -0.58563  -0.57654  -0.56008
 Alpha  occ. eigenvalues --   -0.55447  -0.54620  -0.53844  -0.53187  -0.51537
 Alpha  occ. eigenvalues --   -0.51322  -0.50654  -0.49177  -0.48881  -0.48136
 Alpha  occ. eigenvalues --   -0.47461  -0.47177  -0.46284  -0.45767  -0.45235
 Alpha  occ. eigenvalues --   -0.44343  -0.43803  -0.43227  -0.40764  -0.40112
 Alpha  occ. eigenvalues --   -0.39087  -0.38868  -0.37441  -0.37096  -0.36523
 Alpha  occ. eigenvalues --   -0.34246  -0.31892  -0.28763
 Alpha virt. eigenvalues --   -0.03439   0.00408   0.00609   0.01788   0.02115
 Alpha virt. eigenvalues --    0.02235   0.02963   0.03347   0.03491   0.04009
 Alpha virt. eigenvalues --    0.04664   0.04900   0.05476   0.05682   0.06119
 Alpha virt. eigenvalues --    0.06353   0.07009   0.07239   0.07783   0.08212
 Alpha virt. eigenvalues --    0.08420   0.08939   0.09034   0.09578   0.09998
 Alpha virt. eigenvalues --    0.10767   0.10996   0.11304   0.12058   0.12405
 Alpha virt. eigenvalues --    0.13236   0.13674   0.13836   0.14153   0.14711
 Alpha virt. eigenvalues --    0.15050   0.15262   0.15962   0.16194   0.16350
 Alpha virt. eigenvalues --    0.16952   0.17087   0.17460   0.17799   0.18202
 Alpha virt. eigenvalues --    0.18528   0.19260   0.19412   0.19955   0.20092
 Alpha virt. eigenvalues --    0.20535   0.20694   0.21009   0.21320   0.21603
 Alpha virt. eigenvalues --    0.21804   0.22324   0.23052   0.23110   0.23473
 Alpha virt. eigenvalues --    0.23855   0.24021   0.24832   0.25120   0.25286
 Alpha virt. eigenvalues --    0.25704   0.25951   0.26684   0.27233   0.27489
 Alpha virt. eigenvalues --    0.27733   0.28155   0.28331   0.28786   0.29341
 Alpha virt. eigenvalues --    0.29719   0.30415   0.30580   0.30690   0.31074
 Alpha virt. eigenvalues --    0.31472   0.31763   0.32529   0.32889   0.33341
 Alpha virt. eigenvalues --    0.33503   0.33998   0.34491   0.34940   0.35447
 Alpha virt. eigenvalues --    0.35633   0.36430   0.36738   0.37679   0.38191
 Alpha virt. eigenvalues --    0.38743   0.39263   0.39445   0.40570   0.40977
 Alpha virt. eigenvalues --    0.41176   0.41852   0.42046   0.42677   0.43911
 Alpha virt. eigenvalues --    0.44074   0.44968   0.46080   0.46684   0.47833
 Alpha virt. eigenvalues --    0.49517   0.49938   0.50835   0.52324   0.53488
 Alpha virt. eigenvalues --    0.54351   0.56382   0.59160   0.60076   0.64461
 Alpha virt. eigenvalues --    0.67954   0.68579   0.69407   0.70309   0.70939
 Alpha virt. eigenvalues --    0.71651   0.71916   0.72394   0.73866   0.74398
 Alpha virt. eigenvalues --    0.74561   0.75282   0.75577   0.77428   0.77968
 Alpha virt. eigenvalues --    0.78829   0.80497   0.81156   0.81228   0.82085
 Alpha virt. eigenvalues --    0.82477   0.83778   0.84356   0.85839   0.86314
 Alpha virt. eigenvalues --    0.87243   0.88743   0.89237   0.91365   0.92555
 Alpha virt. eigenvalues --    0.93281   0.93416   0.94360   0.96080   0.97529
 Alpha virt. eigenvalues --    0.98150   0.99048   0.99428   1.01115   1.03281
 Alpha virt. eigenvalues --    1.03895   1.04086   1.05197   1.05930   1.06336
 Alpha virt. eigenvalues --    1.07703   1.09153   1.10235   1.11223   1.12081
 Alpha virt. eigenvalues --    1.13289   1.13948   1.15156   1.16109   1.16986
 Alpha virt. eigenvalues --    1.17972   1.18309   1.19476   1.20429   1.21511
 Alpha virt. eigenvalues --    1.22556   1.22892   1.24209   1.24405   1.25524
 Alpha virt. eigenvalues --    1.26855   1.27333   1.28369   1.29027   1.29486
 Alpha virt. eigenvalues --    1.31346   1.31560   1.33567   1.34125   1.35818
 Alpha virt. eigenvalues --    1.37093   1.37253   1.38677   1.39807   1.40170
 Alpha virt. eigenvalues --    1.40420   1.41322   1.42330   1.42411   1.43315
 Alpha virt. eigenvalues --    1.43968   1.44164   1.45175   1.45323   1.46928
 Alpha virt. eigenvalues --    1.47078   1.48413   1.49026   1.50753   1.53830
 Alpha virt. eigenvalues --    1.55316   1.56819   1.58111   1.58233   1.60402
 Alpha virt. eigenvalues --    1.60994   1.62469   1.63508   1.65060   1.66263
 Alpha virt. eigenvalues --    1.66506   1.67481   1.69021   1.70572   1.74570
 Alpha virt. eigenvalues --    1.76818   1.77439   1.78338   1.79262   1.79811
 Alpha virt. eigenvalues --    1.81505   1.82117   1.84058   1.86405   1.86767
 Alpha virt. eigenvalues --    1.86872   1.89003   1.90593   1.91764   1.92357
 Alpha virt. eigenvalues --    1.94126   1.95332   1.96242   1.97127   1.97965
 Alpha virt. eigenvalues --    1.99758   2.01649   2.02216   2.02421   2.04115
 Alpha virt. eigenvalues --    2.05106   2.05888   2.07342   2.07975   2.09322
 Alpha virt. eigenvalues --    2.10097   2.11109   2.11900   2.15554   2.15709
 Alpha virt. eigenvalues --    2.17418   2.17986   2.18973   2.20055   2.21892
 Alpha virt. eigenvalues --    2.22214   2.24896   2.25833   2.26445   2.28494
 Alpha virt. eigenvalues --    2.29788   2.31051   2.34189   2.37003   2.37279
 Alpha virt. eigenvalues --    2.38116   2.39422   2.41242   2.41806   2.42757
 Alpha virt. eigenvalues --    2.43108   2.43929   2.47152   2.47405   2.49414
 Alpha virt. eigenvalues --    2.51709   2.52635   2.53785   2.54417   2.55834
 Alpha virt. eigenvalues --    2.56943   2.57850   2.58579   2.59020   2.59734
 Alpha virt. eigenvalues --    2.60655   2.60994   2.63464   2.65170   2.66924
 Alpha virt. eigenvalues --    2.68268   2.68821   2.69861   2.70232   2.72085
 Alpha virt. eigenvalues --    2.73180   2.73868   2.75189   2.75815   2.76339
 Alpha virt. eigenvalues --    2.77759   2.79272   2.80655   2.81789   2.83629
 Alpha virt. eigenvalues --    2.84258   2.84882   2.85972   2.89017   2.91423
 Alpha virt. eigenvalues --    2.92260   2.96664   2.97406   3.00737   3.01531
 Alpha virt. eigenvalues --    3.03835   3.07055   3.08278   3.08745   3.12639
 Alpha virt. eigenvalues --    3.13426   3.16313   3.21815   3.23150   3.25194
 Alpha virt. eigenvalues --    3.26788   3.32431   3.36591   3.38405   3.40453
 Alpha virt. eigenvalues --    3.44378   3.45283   3.46981   3.48515   3.51625
 Alpha virt. eigenvalues --    3.53458   3.57034   3.64592   3.66233   3.75877
 Alpha virt. eigenvalues --    4.25775   4.27686   4.30682   4.32653   4.34789
 Alpha virt. eigenvalues --    4.35190   4.37329   4.40672   4.46620   4.50293
 Alpha virt. eigenvalues --    4.52168   4.53331   4.57644   4.62309   4.65544
 Alpha virt. eigenvalues --    4.75108   4.77192   4.86534   4.88592   4.94778
          Condensed to atoms (all electrons):
              1          2          3          4          5          6
     1  O    8.418037   0.431339   0.110842  -0.073068   0.014558   0.009724
     2  C    0.431339  20.001654  -5.608168   2.226740   0.055455  -0.297453
     3  C    0.110842  -5.608168  15.211522  -1.782730  -0.485961   0.581104
     4  C   -0.073068   2.226740  -1.782730   9.229962   0.403150  -0.707406
     5  N    0.014558   0.055455  -0.485961   0.403150   7.346676  -0.137679
     6  C    0.009724  -0.297453   0.581104  -0.707406  -0.137679  10.100434
     7  C    0.011821  -0.147980   0.140972   0.042436  -0.108612  -1.791157
     8  O    0.000674   0.020464  -0.021519   0.046370  -0.022998  -0.060832
     9  C   -0.013607   0.073226  -0.083038  -0.222645   0.151936   0.659565
    10  C   -0.004291   0.017013  -0.004741  -0.395521   0.013511  -0.025376
    11  O   -0.000014  -0.000920   0.001552  -0.001136   0.000029  -0.010009
    12  O    0.000003   0.000226   0.000585   0.002299  -0.001290  -0.018465
    13  C   -0.006477   0.506574  -0.651860   0.003113   0.281066  -2.514499
    14  C   -0.000450   0.045054  -0.030664  -0.073585  -0.056034   0.283354
    15  O   -0.002979  -0.012275  -0.246207   0.397530  -0.148472  -0.282646
    16  C    0.118688  -7.550524   2.347711  -3.634405  -0.201021   0.013870
    17  C   -0.033397  -0.026637  -2.516315   0.770097  -0.001176  -0.237112
    18  Cl  -0.000543  -0.011260  -0.030201   0.003321  -0.000602   0.002806
    19  C    0.055423   0.801116  -0.296041   0.208093   0.001846  -0.049872
    20  C   -0.677089  -4.350909  -0.355037  -0.787092   0.182939   0.173597
    21  H    0.189321   0.067262  -0.165889   0.021080   0.063612   0.012364
    22  H    0.000347  -0.002727  -0.007787   0.038770  -0.041183   0.339439
    23  H    0.000003   0.003136  -0.002817  -0.014377   0.007280  -0.004129
    24  H   -0.000466   0.002830  -0.007901  -0.001624   0.030530  -0.073100
    25  H    0.000059  -0.014403  -0.035837  -0.035280  -0.001162  -0.009180
    26  H   -0.000007   0.019130   0.011153   0.002290  -0.003586   0.045662
    27  H    0.000000   0.000029  -0.000004   0.000037   0.000000   0.001446
    28  H    0.000052  -0.008397  -0.015041   0.017503   0.006663  -0.028981
    29  H   -0.000001   0.000938   0.003780   0.014170  -0.001464   0.049723
    30  H    0.000000   0.000004  -0.001021  -0.005800  -0.001771   0.043726
    31  H    0.000001  -0.002289  -0.006059  -0.004279  -0.000719  -0.070406
    32  H   -0.000413   0.047968   0.018178   0.062806   0.001858   0.001878
    33  H   -0.000426  -0.056546   0.004540  -0.008944   0.000041   0.000021
    34  H   -0.003524   0.027291   0.008434   0.000091   0.000483   0.000160
              7          8          9         10         11         12
     1  O    0.011821   0.000674  -0.013607  -0.004291  -0.000014   0.000003
     2  C   -0.147980   0.020464   0.073226   0.017013  -0.000920   0.000226
     3  C    0.140972  -0.021519  -0.083038  -0.004741   0.001552   0.000585
     4  C    0.042436   0.046370  -0.222645  -0.395521  -0.001136   0.002299
     5  N   -0.108612  -0.022998   0.151936   0.013511   0.000029  -0.001290
     6  C   -1.791157  -0.060832   0.659565  -0.025376  -0.010009  -0.018465
     7  C    8.107128   0.316316  -1.226381   0.127014   0.048527   0.086831
     8  O    0.316316   8.265606  -0.207679   0.019384  -0.002468   0.002296
     9  C   -1.226381  -0.207679   8.727864  -1.880055   0.018736  -0.177604
    10  C    0.127014   0.019384  -1.880055   7.215983   0.005701   0.495292
    11  O    0.048527  -0.002468   0.018736   0.005701   8.328882  -0.129184
    12  O    0.086831   0.002296  -0.177604   0.495292  -0.129184   8.215075
    13  C    0.046159  -0.009573  -0.008600  -0.030647   0.002711   0.013067
    14  C   -0.304134   0.004894  -0.025739  -0.055796  -0.001564  -0.011187
    15  O    0.178525  -0.005473  -0.046867   0.026467   0.000120  -0.000045
    16  C    0.249870  -0.014365  -0.154849  -0.039278   0.001675  -0.000710
    17  C    0.019099  -0.000785  -0.033806  -0.026011  -0.000476  -0.000145
    18  Cl   0.000303  -0.000003  -0.000544  -0.000083   0.000002   0.000000
    19  C    0.014325   0.000375  -0.004652   0.000352  -0.000019  -0.000002
    20  C   -0.037466  -0.001591   0.084539   0.032775   0.000308   0.000000
    21  H   -0.007929  -0.000504   0.001438   0.000248   0.000002  -0.000001
    22  H   -0.028989  -0.002661   0.006000  -0.004152   0.000008  -0.000072
    23  H    0.423198  -0.045288  -0.082803   0.022105   0.000889  -0.000755
    24  H    0.056320   0.259553  -0.036762   0.013100   0.000166  -0.000215
    25  H   -0.017801   0.008871   0.324541   0.032850   0.000496  -0.002452
    26  H   -0.037748  -0.007637   0.354475  -0.001402   0.004467   0.005203
    27  H   -0.001937   0.000034   0.021430  -0.004239   0.239368   0.003389
    28  H    0.029476  -0.000766  -0.001570   0.003066   0.000001   0.000001
    29  H   -0.018675   0.000059   0.003024  -0.002165   0.000001   0.000066
    30  H   -0.028317  -0.000046   0.007395  -0.003798  -0.000003   0.000043
    31  H    0.075955  -0.000681  -0.035620   0.017586  -0.000112  -0.000977
    32  H   -0.000089   0.000002   0.001243   0.000135   0.000000   0.000000
    33  H   -0.000010   0.000000  -0.000009  -0.000001   0.000000   0.000000
    34  H   -0.000010   0.000000   0.000013   0.000000   0.000000   0.000000
             13         14         15         16         17         18
     1  O   -0.006477  -0.000450  -0.002979   0.118688  -0.033397  -0.000543
     2  C    0.506574   0.045054  -0.012275  -7.550524  -0.026637  -0.011260
     3  C   -0.651860  -0.030664  -0.246207   2.347711  -2.516315  -0.030201
     4  C    0.003113  -0.073585   0.397530  -3.634405   0.770097   0.003321
     5  N    0.281066  -0.056034  -0.148472  -0.201021  -0.001176  -0.000602
     6  C   -2.514499   0.283354  -0.282646   0.013870  -0.237112   0.002806
     7  C    0.046159  -0.304134   0.178525   0.249870   0.019099   0.000303
     8  O   -0.009573   0.004894  -0.005473  -0.014365  -0.000785  -0.000003
     9  C   -0.008600  -0.025739  -0.046867  -0.154849  -0.033806  -0.000544
    10  C   -0.030647  -0.055796   0.026467  -0.039278  -0.026011  -0.000083
    11  O    0.002711  -0.001564   0.000120   0.001675  -0.000476   0.000002
    12  O    0.013067  -0.011187  -0.000045  -0.000710  -0.000145   0.000000
    13  C    8.637944  -0.073385  -0.017846  -0.718023   0.329221  -0.003621
    14  C   -0.073385   5.781243  -0.118571  -0.105925   0.026738  -0.000243
    15  O   -0.017846  -0.118571   8.464335   0.051518   0.066003  -0.000641
    16  C   -0.718023  -0.105925   0.051518  23.882115  -4.765900  -0.114020
    17  C    0.329221   0.026738   0.066003  -4.765900  11.085046  -0.081340
    18  Cl  -0.003621  -0.000243  -0.000641  -0.114020  -0.081340  17.023385
    19  C    0.039038   0.004115   0.001191  -2.984568   1.387459  -0.095664
    20  C   -0.128324  -0.019891   0.020383  -0.092249   0.001693   0.084533
    21  H    0.001936   0.000691   0.001899  -0.035451   0.006696   0.000014
    22  H   -0.000104  -0.013813   0.012621   0.004400   0.000706  -0.000001
    23  H   -0.041395   0.021220  -0.004941  -0.004954  -0.000258   0.000000
    24  H    0.017709  -0.001419  -0.000789  -0.004207  -0.000291   0.000000
    25  H    0.024996  -0.009361   0.012990   0.025331   0.010502   0.000026
    26  H   -0.032042   0.000482  -0.003745  -0.018369  -0.006271  -0.000006
    27  H   -0.000063   0.000224  -0.000005  -0.000019  -0.000006   0.000000
    28  H    0.358457  -0.059541  -0.042843   0.025896   0.002733   0.000021
    29  H   -0.105763   0.436324  -0.007532  -0.005800  -0.001471   0.000000
    30  H   -0.108813   0.453088   0.007351  -0.000365   0.000071   0.000000
    31  H    0.005121   0.360045   0.005385   0.011776   0.001099   0.000007
    32  H    0.011727  -0.000282   0.006087   0.131780   0.016406  -0.003040
    33  H   -0.000085   0.000000   0.000005   0.140809   0.087416  -0.007936
    34  H    0.000023   0.000001   0.000015   0.000407  -0.002422   0.000904
             19         20         21         22         23         24
     1  O    0.055423  -0.677089   0.189321   0.000347   0.000003  -0.000466
     2  C    0.801116  -4.350909   0.067262  -0.002727   0.003136   0.002830
     3  C   -0.296041  -0.355037  -0.165889  -0.007787  -0.002817  -0.007901
     4  C    0.208093  -0.787092   0.021080   0.038770  -0.014377  -0.001624
     5  N    0.001846   0.182939   0.063612  -0.041183   0.007280   0.030530
     6  C   -0.049872   0.173597   0.012364   0.339439  -0.004129  -0.073100
     7  C    0.014325  -0.037466  -0.007929  -0.028989   0.423198   0.056320
     8  O    0.000375  -0.001591  -0.000504  -0.002661  -0.045288   0.259553
     9  C   -0.004652   0.084539   0.001438   0.006000  -0.082803  -0.036762
    10  C    0.000352   0.032775   0.000248  -0.004152   0.022105   0.013100
    11  O   -0.000019   0.000308   0.000002   0.000008   0.000889   0.000166
    12  O   -0.000002   0.000000  -0.000001  -0.000072  -0.000755  -0.000215
    13  C    0.039038  -0.128324   0.001936  -0.000104  -0.041395   0.017709
    14  C    0.004115  -0.019891   0.000691  -0.013813   0.021220  -0.001419
    15  O    0.001191   0.020383   0.001899   0.012621  -0.004941  -0.000789
    16  C   -2.984568  -0.092249  -0.035451   0.004400  -0.004954  -0.004207
    17  C    1.387459   0.001693   0.006696   0.000706  -0.000258  -0.000291
    18  Cl  -0.095664   0.084533   0.000014  -0.000001   0.000000   0.000000
    19  C    7.442637  -0.355286  -0.006959   0.000133  -0.000002  -0.000049
    20  C   -0.355286  11.467844   0.107589  -0.001366   0.000092   0.001567
    21  H   -0.006959   0.107589   0.296676  -0.000215   0.000000   0.000302
    22  H    0.000133  -0.001366  -0.000215   0.507673  -0.005509  -0.003339
    23  H   -0.000002   0.000092   0.000000  -0.005509   0.530449   0.005717
    24  H   -0.000049   0.001567   0.000302  -0.003339   0.005717   0.331726
    25  H    0.000467  -0.001858  -0.000002   0.000010   0.001786  -0.000162
    26  H    0.000103   0.003711   0.000026  -0.000201   0.002574   0.001954
    27  H    0.000000   0.000003   0.000000   0.000000  -0.000004   0.000000
    28  H    0.000192  -0.000170  -0.000005  -0.007562  -0.000073  -0.000002
    29  H   -0.000085   0.000171   0.000000  -0.000100   0.000112   0.000000
    30  H   -0.000004  -0.000006   0.000000   0.000250  -0.000285  -0.000005
    31  H    0.000092  -0.000136   0.000000  -0.000015  -0.001787   0.000000
    32  H    0.043963  -0.015808  -0.000009   0.000001   0.000000   0.000000
    33  H    0.177834  -0.006855   0.000002   0.000000   0.000000   0.000000
    34  H   -0.003967   0.300821   0.000067   0.000000   0.000000   0.000000
             25         26         27         28         29         30
     1  O    0.000059  -0.000007   0.000000   0.000052  -0.000001   0.000000
     2  C   -0.014403   0.019130   0.000029  -0.008397   0.000938   0.000004
     3  C   -0.035837   0.011153  -0.000004  -0.015041   0.003780  -0.001021
     4  C   -0.035280   0.002290   0.000037   0.017503   0.014170  -0.005800
     5  N   -0.001162  -0.003586   0.000000   0.006663  -0.001464  -0.001771
     6  C   -0.009180   0.045662   0.001446  -0.028981   0.049723   0.043726
     7  C   -0.017801  -0.037748  -0.001937   0.029476  -0.018675  -0.028317
     8  O    0.008871  -0.007637   0.000034  -0.000766   0.000059  -0.000046
     9  C    0.324541   0.354475   0.021430  -0.001570   0.003024   0.007395
    10  C    0.032850  -0.001402  -0.004239   0.003066  -0.002165  -0.003798
    11  O    0.000496   0.004467   0.239368   0.000001   0.000001  -0.000003
    12  O   -0.002452   0.005203   0.003389   0.000001   0.000066   0.000043
    13  C    0.024996  -0.032042  -0.000063   0.358457  -0.105763  -0.108813
    14  C   -0.009361   0.000482   0.000224  -0.059541   0.436324   0.453088
    15  O    0.012990  -0.003745  -0.000005  -0.042843  -0.007532   0.007351
    16  C    0.025331  -0.018369  -0.000019   0.025896  -0.005800  -0.000365
    17  C    0.010502  -0.006271  -0.000006   0.002733  -0.001471   0.000071
    18  Cl   0.000026  -0.000006   0.000000   0.000021   0.000000   0.000000
    19  C    0.000467   0.000103   0.000000   0.000192  -0.000085  -0.000004
    20  C   -0.001858   0.003711   0.000003  -0.000170   0.000171  -0.000006
    21  H   -0.000002   0.000026   0.000000  -0.000005   0.000000   0.000000
    22  H    0.000010  -0.000201   0.000000  -0.007562  -0.000100   0.000250
    23  H    0.001786   0.002574  -0.000004  -0.000073   0.000112  -0.000285
    24  H   -0.000162   0.001954   0.000000  -0.000002   0.000000  -0.000005
    25  H    0.491115  -0.024104  -0.000191  -0.000007   0.000080  -0.000009
    26  H   -0.024104   0.467211  -0.000049   0.000003   0.000000  -0.000005
    27  H   -0.000191  -0.000049   0.302218   0.000000   0.000000   0.000000
    28  H   -0.000007   0.000003   0.000000   0.536635  -0.004505  -0.001387
    29  H    0.000080   0.000000   0.000000  -0.004505   0.502814  -0.022572
    30  H   -0.000009  -0.000005   0.000000  -0.001387  -0.022572   0.498280
    31  H   -0.000699   0.000090   0.000000   0.003857  -0.026131  -0.026693
    32  H   -0.000004   0.000001   0.000000  -0.000007  -0.000003   0.000000
    33  H    0.000000   0.000000   0.000000   0.000000   0.000000   0.000000
    34  H    0.000000   0.000000   0.000000   0.000000   0.000000   0.000000
             31         32         33         34
     1  O    0.000001  -0.000413  -0.000426  -0.003524
     2  C   -0.002289   0.047968  -0.056546   0.027291
     3  C   -0.006059   0.018178   0.004540   0.008434
     4  C   -0.004279   0.062806  -0.008944   0.000091
     5  N   -0.000719   0.001858   0.000041   0.000483
     6  C   -0.070406   0.001878   0.000021   0.000160
     7  C    0.075955  -0.000089  -0.000010  -0.000010
     8  O   -0.000681   0.000002   0.000000   0.000000
     9  C   -0.035620   0.001243  -0.000009   0.000013
    10  C    0.017586   0.000135  -0.000001   0.000000
    11  O   -0.000112   0.000000   0.000000   0.000000
    12  O   -0.000977   0.000000   0.000000   0.000000
    13  C    0.005121   0.011727  -0.000085   0.000023
    14  C    0.360045  -0.000282   0.000000   0.000001
    15  O    0.005385   0.006087   0.000005   0.000015
    16  C    0.011776   0.131780   0.140809   0.000407
    17  C    0.001099   0.016406   0.087416  -0.002422
    18  Cl   0.000007  -0.003040  -0.007936   0.000904
    19  C    0.000092   0.043963   0.177834  -0.003967
    20  C   -0.000136  -0.015808  -0.006855   0.300821
    21  H    0.000000  -0.000009   0.000002   0.000067
    22  H   -0.000015   0.000001   0.000000   0.000000
    23  H   -0.001787   0.000000   0.000000   0.000000
    24  H    0.000000   0.000000   0.000000   0.000000
    25  H   -0.000699  -0.000004   0.000000   0.000000
    26  H    0.000090   0.000001   0.000000   0.000000
    27  H    0.000000   0.000000   0.000000   0.000000
    28  H    0.003857  -0.000007   0.000000   0.000000
    29  H   -0.026131  -0.000003   0.000000   0.000000
    30  H   -0.026693   0.000000   0.000000   0.000000
    31  H    0.521686  -0.000002   0.000000   0.000000
    32  H   -0.000002   0.460819  -0.000129   0.000008
    33  H    0.000000  -0.000129   0.466808  -0.003642
    34  H    0.000000   0.000008  -0.003642   0.469438
 Mulliken atomic charges:
              1
     1  O   -0.544138
     2  C   -0.256963
     3  C   -0.085537
     4  C    0.258035
     5  N   -0.347902
     6  C   -0.000572
     7  C   -0.217038
     8  O   -0.540028
     9  C   -0.192595
    10  C    0.434971
    11  O   -0.507737
    12  O   -0.481269
    13  C    0.172255
    14  C   -0.455887
    15  O   -0.310547
    16  C   -0.560843
    17  C   -0.077165
    18  Cl   0.234427
    19  C   -0.381585
    20  C    0.368564
    21  H    0.445738
    22  H    0.209437
    23  H    0.190817
    24  H    0.408857
    25  H    0.218391
    26  H    0.216636
    27  H    0.438340
    28  H    0.186300
    29  H    0.185005
    30  H    0.190691
    31  H    0.173903
    32  H    0.214928
    33  H    0.207105
    34  H    0.205408
 Sum of Mulliken atomic charges =   0.00000
 Mulliken charges with hydrogens summed into heavy atoms:
              1
     1  O   -0.098400
     2  C   -0.256963
     3  C   -0.085537
     4  C    0.258035
     5  N   -0.347902
     6  C    0.208865
     7  C   -0.026221
     8  O   -0.131170
     9  C    0.242432
    10  C    0.434971
    11  O   -0.069398
    12  O   -0.481269
    13  C    0.358555
    14  C    0.093712
    15  O   -0.310547
    16  C   -0.345916
    17  C   -0.077165
    18  Cl   0.234427
    19  C   -0.174480
    20  C    0.573972
 Sum of Mulliken charges with hydrogens summed into heavy atoms =   0.00000
 Electronic spatial extent (au):  <R**2>=           7563.1129
 Charge=              0.0000 electrons
 Dipole moment (field-independent basis, Debye):
    X=             -1.1700    Y=             -1.3416    Z=             -1.0559  Tot=              2.0697
 Quadrupole moment (field-independent basis, Debye-Ang):
   XX=           -142.5343   YY=           -129.2217   ZZ=           -111.1246
   XY=            -11.8329   XZ=             -2.5529   YZ=              0.0507
 Traceless Quadrupole moment (field-independent basis, Debye-Ang):
   XX=            -14.9074   YY=             -1.5948   ZZ=             16.5023
   XY=            -11.8329   XZ=             -2.5529   YZ=              0.0507
 Octapole moment (field-independent basis, Debye-Ang**2):
  XXX=           -103.6538  YYY=            -24.2919  ZZZ=             10.7147  XYY=              9.2279
  XXY=             10.9323  XXZ=             43.8564  XZZ=             66.8627  YZZ=            -16.0816
  YYZ=              5.8238  XYZ=            -20.5962
 Hexadecapole moment (field-independent basis, Debye-Ang**3):
 XXXX=          -7585.9196 YYYY=          -1588.3607 ZZZZ=          -1132.6795 XXXY=           -217.2220
 XXXZ=             35.8698 YYYX=              4.1911 YYYZ=             -7.7110 ZZZX=            165.2797
 ZZZY=            -58.6447 XXYY=          -1479.9828 XXZZ=          -1131.4022 YYZZ=           -441.2401
 XXYZ=             -8.5314 YYXZ=             23.4698 ZZXY=            -86.9893
 N-N= 1.685001507658D+03 E-N=-6.641996970080D+03  KE= 1.385289152007D+03
 D1PCM: PCM CHGder 1st derivatives, ID1Alg=3 FixD1E=F DoIter=F DoCFld=F I1PDM=0.
 Calling FoFJK, ICntrl=      2127 FMM=F ISym2X=0 I1Cent= 0 IOpClX= 0 NMat=1 NMatS=1 NMatT=0.
 ***** Axes restored to original set *****
 -------------------------------------------------------------------
 Center     Atomic                   Forces (Hartrees/Bohr)
 Number     Number              X              Y              Z
 -------------------------------------------------------------------
      1        8          -0.026159897    0.018626605   -0.002656548
      2        6           0.007439347   -0.007291346   -0.000124249
      3        6           0.002313754    0.017557766    0.007176222
      4        6           0.002220458   -0.001958336    0.002201111
      5        7          -0.013348308   -0.013553619   -0.010479694
      6        6           0.021192151    0.005027934    0.004439330
      7        6          -0.013514455   -0.001656635   -0.004550705
      8        8           0.029749491   -0.001752690   -0.003270404
      9        6           0.007891883   -0.001343455    0.005665321
     10        6           0.009645107   -0.002224349    0.006177043
     11        8          -0.022695925   -0.018915288    0.035535968
     12        8          -0.027329325    0.004581152   -0.012781407
     13        6           0.018904106   -0.007378943    0.000286724
     14        6          -0.010396935   -0.000105587   -0.001639350
     15        8          -0.034776673    0.031278086   -0.007823750
     16        6          -0.017583455   -0.003569168   -0.006989775
     17        6           0.012176705   -0.024140742   -0.004342702
     18       17          -0.002169142    0.008112505    0.002050637
     19        6           0.015592948   -0.009323982    0.002418978
     20        6           0.008990126    0.016213953    0.008899887
     21        1           0.023946443   -0.004130465    0.005981530
     22        1           0.003352915   -0.004589134   -0.005340880
     23        1           0.002469672    0.000373535   -0.001547765
     24        1          -0.022772613   -0.006679741   -0.004147202
     25        1          -0.000815027    0.007639048    0.002511207
     26        1          -0.000165273   -0.002574565   -0.001257191
     27        1           0.030328025    0.009124884   -0.018050659
     28        1          -0.000909508   -0.001451721    0.003661434
     29        1          -0.001988527    0.000380427    0.002028776
     30        1          -0.000622280   -0.004055683    0.000867918
     31        1          -0.000759892   -0.000288274   -0.004407308
     32        1           0.004392399    0.000707282    0.002028231
     33        1          -0.004006024    0.001114332   -0.001053466
     34        1          -0.000592272   -0.003753784   -0.001467264
 -------------------------------------------------------------------
 Cartesian Forces:  Max     0.035535968 RMS     0.011890498

 GradGradGradGradGradGradGradGradGradGradGradGradGradGradGradGradGradGrad
 Berny optimization.
 Internal  Forces:  Max     0.036440366 RMS     0.007819401
 Search for a local minimum.
 Step number   1 out of a maximum of  191
 All quantities printed in internal units (Hartrees-Bohrs-Radians)
 Mixed Optimization -- RFO/linear search
 Second derivative matrix not updated -- first step.
 ITU=  0
     Eigenvalues ---    0.00230   0.00230   0.00265   0.00352   0.00685
     Eigenvalues ---    0.00828   0.00906   0.01475   0.01557   0.01684
     Eigenvalues ---    0.01845   0.01925   0.01955   0.01969   0.01981
     Eigenvalues ---    0.01996   0.01998   0.02000   0.02147   0.02237
     Eigenvalues ---    0.02372   0.03670   0.03744   0.03769   0.04010
     Eigenvalues ---    0.04204   0.04912   0.05075   0.05137   0.05222
     Eigenvalues ---    0.05522   0.07911   0.07943   0.08500   0.09724
     Eigenvalues ---    0.13051   0.13714   0.16000   0.16000   0.16000
     Eigenvalues ---    0.16000   0.16000   0.16000   0.16000   0.16000
     Eigenvalues ---    0.16000   0.16911   0.17022   0.19273   0.19831
     Eigenvalues ---    0.21917   0.22371   0.23490   0.23716   0.24601
     Eigenvalues ---    0.24980   0.25000   0.25000   0.25000   0.25000
     Eigenvalues ---    0.25000   0.27265   0.27424   0.27463   0.28709
     Eigenvalues ---    0.29303   0.33062   0.33515   0.34516   0.34591
     Eigenvalues ---    0.34658   0.34726   0.34787   0.34802   0.35044
     Eigenvalues ---    0.35051   0.35938   0.35948   0.35976   0.37221
     Eigenvalues ---    0.39797   0.40408   0.42324   0.43015   0.43054
     Eigenvalues ---    0.43969   0.44307   0.44503   0.48218   0.51833
     Eigenvalues ---    0.53192   0.56687   0.57794   0.58897   0.70681
     Eigenvalues ---    0.92153
 RFO step:  Lambda=-3.01382811D-02 EMin= 2.30000000D-03
 Linear search not attempted -- first point.
 Iteration  1 RMS(Cart)=  0.08681135 RMS(Int)=  0.00154065
 Iteration  2 RMS(Cart)=  0.00261062 RMS(Int)=  0.00031277
 Iteration  3 RMS(Cart)=  0.00000555 RMS(Int)=  0.00031275
 Iteration  4 RMS(Cart)=  0.00000000 RMS(Int)=  0.00031275
 Variable       Old X    -DE/DX   Delta X   Delta X   Delta X     New X
                                 (Linear)    (Quad)   (Total)
    R1        2.58060  -0.01497   0.00000  -0.02730  -0.02730   2.55330
    R2        1.80363   0.02500   0.00000   0.04188   0.04188   1.84551
    R3        2.69053  -0.01887   0.00000  -0.04220  -0.04219   2.64834
    R4        2.66259  -0.01445   0.00000  -0.03085  -0.03086   2.63173
    R5        2.81457  -0.02294   0.00000  -0.06279  -0.06279   2.75178
    R6        2.67010  -0.01304   0.00000  -0.02798  -0.02796   2.64214
    R7        2.40458   0.01380   0.00000   0.01783   0.01805   2.42264
    R8        2.58458  -0.01261   0.00000  -0.02448  -0.02424   2.56034
    R9        2.72864   0.00982   0.00000   0.02546   0.02538   2.75402
   R10        2.93415  -0.00770   0.00000  -0.02528  -0.02528   2.90887
   R11        2.91042   0.00820   0.00000   0.02687   0.02660   2.93702
   R12        2.06468   0.00147   0.00000   0.00392   0.00392   2.06860
   R13        2.67652   0.00960   0.00000   0.02085   0.02085   2.69737
[...]
 0.00009924,-0.00003015,-0.00001520,0.00012985,0.00002301,0.00004779,0.
 00007485,-0.00010156,0.00006279,-0.00001489,-0.00002911,0.00006572,0.0
 0003322,-0.00000123,-0.00000268,-0.00000577,0.00038160,0.00039936,0.00
 026293,-0.02988635,0.22226263,0.00001927,0.00000742,0.00000758,0.00000
 086,-0.00000892,-0.00000746,0.00003593,0.00003109,0.00001119,-0.000220
 77,-0.00034953,-0.00036231,-0.00006779,0.00043510,0.00039139,0.0008754
 6,-0.00009069,0.00116117,0.00037282,0.00042040,0.00020310,-0.00026205,
 -0.00027062,-0.00009288,-0.00012766,0.00007718,-0.00006127,-0.00023076
 ,-0.00013744,0.00046570,0.00004860,0.00010957,-0.00023937,0.00013007,0
 .00001581,-0.00016090,-0.00096558,0.00089318,-0.00060384,0.02645765,-0
 .13438409,-0.16127706,0.00035666,0.00011335,0.00018516,-0.00000267,-0.
 00000838,-0.00000982,-0.00000756,0.00000541,-0.00000199,0.00000124,-0.
 00000019,0.00000059,0.00000100,0.00000416,0.00000200,0.00000636,-0.000
 00116,0.00000527,-0.00002177,-0.00000135,-0.00000691,-0.00016463,-0.00
 022660,-0.00018584,-0.00036017,0.00008864,-0.00009736,0.00008073,-0.00
 000806,-0.00001713,0.00023164,-0.00025169,0.00005512,0.00005174,-0.000
 10969,-0.00010242,-0.00002896,-0.00000659,0.00002763,-0.00059275,0.000
 42434,0.00057548,-0.02855722,0.14593222,0.16927052,-0.00001795,-0.0000
 9758,-0.00005409,-0.00013210,0.00026424,0.00004023,-0.00020431,-0.0004
 1400,-0.00040673,-0.00024692,0.00255665,0.00137970,0.00020535,-0.00071
 257,-0.00003956,0.00033567,0.00011733,-0.00001983,-0.00025651,-0.00020
 619,-0.00003369,0.00019038,0.00003148,0.00002039,0.00015813,0.00007454
 ,0.00013390,0.00001789,-0.00000675,-0.00004591,-0.00000778,-0.00000513
 ,0.00001928,-0.00001122,-0.00001488,0.00000967,-0.01683977,0.01766450,
 -0.00857048,-0.21111317,0.11414716,-0.06904665,-0.00603860,-0.00469844
 ,-0.00160336,0.00005393,-0.00007550,0.00000051,-0.00003584,-0.00007060
 ,-0.00005114,-0.00002322,0.00005071,0.00001324,-0.00001989,0.00005057,
 0.00001435,-0.00001527,-0.00007348,-0.00003127,0.00008082,0.00004428,0
 .00005604,-0.00004831,-0.00026181,-0.00015522,0.00029849,-0.00008543,-
 0.00031470,-0.00001802,0.00003948,0.00005124,-0.00008288,-0.00000425,0
 .00000878,0.00002613,0.00000765,0.00008872,0.00000186,0.00000013,-0.00
 000102,0.00077468,0.00001080,0.00056263,-0.00267716,0.00115358,-0.0008
 4189,0.22848980,0.00004342,-0.00005822,-0.00000509,-0.00010922,0.00016
 616,0.00002054,-0.00017750,-0.00032989,-0.00025364,-0.00072007,0.00162
 158,0.00044028,0.00041144,-0.00016130,0.00023169,0.00050893,0.00014817
 ,-0.00039676,0.00008988,-0.00005755,-0.00013905,-0.00001241,0.00001557
 ,0.00002555,0.00003381,-0.00009119,0.00005466,0.00007139,0.00002060,-0
 .00005390,-0.00001532,-0.00001136,0.00002877,-0.00003476,-0.00000310,0
 .00001078,-0.01283085,0.01185583,-0.00687848,0.11587420,-0.12941569,0.
 05062194,-0.00573470,-0.00209083,-0.00133235,0.00003234,-0.00004006,-0
 .00000826,-0.00000912,-0.00003407,-0.00002348,-0.00001157,0.00002562,0
 .00000700,-0.00001067,0.00001958,0.00000654,-0.00001111,-0.00004579,-0
 .00003015,-0.00002537,0.00000533,-0.00000798,0.00007654,-0.00009798,0.
 00005582,-0.00006500,-0.00008691,-0.00037113,-0.00002150,-0.00000059,0
 .00000789,-0.00007564,0.00002642,-0.00001669,-0.00001396,0.00001795,0.
 00000423,0.00000500,0.00000006,-0.00000401,0.00078968,0.00058572,0.000
 38441,0.01818819,-0.01217460,0.00962507,-0.12448124,0.13670767,0.00001
 295,0.00000125,0.00001222,0.00001874,0.00000630,-0.00001187,0.00002826
 ,0.00000490,-0.00002511,0.00020921,0.00017876,0.00045282,0.00012491,0.
 00003655,-0.00002718,-0.00001946,-0.00003225,0.00026318,-0.00078995,0.
 00020288,-0.00040447,0.00033737,0.00011843,0.00023212,-0.00014628,0.00
 024119,-0.00020927,-0.00027847,-0.00005040,0.00007350,0.00004694,0.000
 01144,-0.00001155,0.00015208,0.00000035,0.00006631,-0.00059524,-0.0000
 0258,-0.00277894,-0.06965034,0.05026533,-0.07552114,-0.00014799,-0.000
 31458,0.00105507,-0.00000219,-0.00000353,0.00001335,0.00000786,0.00000
 517,0.00000108,0.00000176,-0.00000307,-0.00000088,0.00000278,-0.000008
 66,-0.00000231,-0.00000596,0.00000069,0.00000394,-0.00002494,-0.000006
 89,-0.00002216,-0.00003674,-0.00008315,-0.00002034,0.00035504,-0.00031
 276,-0.00056317,-0.00004543,0.00005993,0.00002340,0.00018589,-0.000230
 66,0.00013889,0.00005297,-0.00018517,-0.00007087,-0.00000523,0.0000093
 0,0.00000461,-0.00015233,-0.00022569,-0.00000397,0.01740379,-0.0104255
 5,0.00735239,0.07628462,-0.05375473,0.07795931,-0.00000791,0.00001095,
 -0.00000038,0.00001404,-0.00001894,-0.00001060,0.00004151,0.00002889,0
 .00010750,-0.00001043,-0.00045670,-0.00029550,-0.00003324,0.00015741,-
 0.00006420,0.00072717,0.00138933,0.00003994,0.00012288,-0.00065477,0.0
 0011796,0.00007641,0.00019763,-0.00022732,0.00013896,-0.00041508,-0.00
 029698,0.00070047,0.00016893,-0.00041028,-0.00012726,-0.00005987,0.000
 16460,-0.00039881,-0.00008315,-0.00005158,-0.00724544,-0.01053574,0.02
 751747,-0.06046159,-0.02244332,0.05431808,0.00292317,0.00122536,-0.000
 12729,0.00000268,0.00002043,-0.00002225,-0.00000150,0.00000150,0.00001
 699,0.00000227,-0.00000297,-0.00000120,0.00000318,0.00000279,-0.000006
 69,-0.00000094,0.00000120,0.00000844,0.00000498,0.00000177,0.00001265,
 0.00011602,0.00014119,0.00003421,0.00005907,0.00018220,-0.00008360,-0.
 00003429,-0.00004133,0.00003341,-0.00076945,-0.00005342,-0.00143997,-0
 .00010001,0.00020503,0.00014112,0.00002863,-0.00000380,-0.00001820,-0.
 00414714,-0.00329181,-0.00088352,-0.00193682,-0.00168234,0.00379426,0.
 00715164,0.00823548,-0.02332319,0.06316452,0.00000436,-0.00002132,-0.0
 0000091,-0.00000029,0.00004693,0.00000111,-0.00007578,-0.00007865,0.00
 005443,0.00025597,0.00058449,0.00039853,0.00028082,-0.00011669,-0.0003
 6332,0.00015370,0.00083490,0.00104091,-0.00080448,-0.00130911,-0.00047
 861,0.00048574,0.00054748,0.00016919,0.00016616,0.00000668,-0.00024721
 ,0.00027806,0.00027036,-0.00094008,-0.00006395,-0.00020963,0.00044948,
 -0.00020342,-0.00005457,0.00038970,-0.00209328,-0.00852569,0.01914210,
 -0.02357553,-0.08492154,0.09025310,0.00048952,0.00084085,-0.00150409,0
 .00000224,0.00000848,-0.00001051,0.00000642,-0.00001030,0.00000249,-0.
 00000288,0.00000300,0.00000086,-0.00000100,-0.00000158,-0.00000698,-0.
 00001153,-0.00000614,0.00000178,-0.00000368,-0.00000245,-0.00000275,0.
 00013876,0.00014526,-0.00004117,0.00058537,-0.00094124,-0.00030404,-0.
 00012427,0.00000803,0.00007904,-0.00046644,0.00058708,-0.00043385,-0.0
 0003403,0.00014143,0.00021535,0.00005513,0.00001584,-0.00005103,-0.003
 50612,-0.00116939,-0.00085952,0.00525593,0.01084623,-0.02233405,-0.004
 96994,-0.00649109,0.01450029,0.02777217,0.08898270,0.00004754,0.000012
 29,0.00003227,0.00001699,-0.00002586,-0.00001488,0.00005964,0.00002735
 ,0.00002589,-0.00009108,-0.00024156,-0.00008571,0.00018850,0.00015340,
 0.00010961,0.00020628,-0.00034373,0.00007159,0.00039957,-0.00036369,0.
 00004270,-0.00026133,0.00006465,0.00004710,-0.00087337,-0.00044057,-0.
 00146504,-0.00028612,-0.00015824,-0.00023230,0.00002623,0.00004690,0.0
 0001472,0.00012617,0.00006246,0.00027015,-0.00077829,-0.00056749,0.002
 70530,0.05561013,0.09244213,-0.27338601,0.00113628,0.00001117,0.000689
 78,-0.00000736,0.00001973,0.00000539,0.00001446,0.00001597,0.00001881,
 0.00000491,-0.00001412,-0.00000329,0.00000730,-0.00001387,-0.00000581,
 -0.00000113,0.00000370,0.00000665,-0.00006234,-0.00002235,-0.00004320,
 -0.00002225,0.00002946,0.00000092,-0.00024472,-0.00023983,-0.00013647,
 0.00004642,-0.00003889,-0.00002713,-0.00123118,-0.00098145,-0.00171136
 ,-0.00000371,-0.00009264,-0.00010878,0.00001118,0.00002039,-0.00000272
 ,-0.00069229,-0.00037908,0.00134072,0.00315515,0.00836300,-0.01649076,
 0.00254339,0.00175655,-0.00797672,-0.05904692,-0.09911284,0.29631162,0
 .00030415,0.00085650,0.00051504,0.00033408,0.00328222,-0.00119330,0.01
 078665,0.00621625,0.00607326,-0.00021978,-0.00050619,0.00146658,0.0000
 2632,-0.00043867,-0.00014519,0.00006714,0.00012089,-0.00010285,0.00000
 928,0.00000037,0.00003924,0.00000408,-0.00003658,-0.00003699,0.0000237
 2,0.00000968,-0.00000076,-0.00002897,-0.00001083,0.00002769,0.00000620
 ,0.00000429,-0.00002146,0.00001761,0.00000282,-0.00001190,-0.00033537,
 0.00014211,-0.00012798,0.00005078,-0.00006347,0.00002632,-0.00172317,0
 .00105159,-0.00018861,-0.15411789,-0.09817564,-0.10047021,-0.01060581,
 -0.01610285,-0.01452283,0.00042418,-0.00157822,0.00083321,-0.00334562,
 0.00320475,-0.00276640,-0.00034184,0.00084518,0.00069936,0.00032880,-0
 .00011690,0.00010427,-0.00003392,-0.00000019,-0.00000578,-0.00000097,0
 .00000281,-0.00000885,0.00000734,0.00000891,0.00001022,-0.00000254,-0.
 00001005,0.00000971,0.00000247,-0.00000260,0.00000305,-0.00000252,0.00
 000102,0.00000294,0.00006172,-0.00004714,0.00003459,-0.00001148,0.0000
 0289,-0.00001309,0.00002473,0.00001441,-0.00000183,-0.00000425,0.00000
 860,-0.00000082,0.15873801,-0.00065230,-0.00107123,-0.00085552,0.00429
 676,-0.00202258,-0.00182710,-0.01602452,-0.01110076,-0.01461165,-0.002
 11471,-0.00165285,0.00023387,0.00000265,0.00054375,0.00021508,-0.00007
 131,0.00026233,-0.00019918,0.00007857,-0.00003660,-0.00009466,-0.00001
 434,0.00005995,0.00008077,-0.00003709,-0.00000777,0.00002962,0.0000621
 2,0.00002946,-0.00006749,-0.00001655,-0.00002065,0.00004900,-0.0000417
 4,-0.00001182,0.00002713,0.00075321,-0.00014709,0.00068510,-0.00004995
 ,0.00009962,-0.00004233,-0.00024945,0.00107423,0.00007294,-0.09870824,
 -0.15592183,-0.10161585,0.00753361,0.00883073,0.00559643,-0.00014406,0
 .00039567,0.00152763,0.00333944,0.00052353,-0.00098449,0.00030097,-0.0
 0037445,0.00040903,-0.00053795,0.00017848,-0.00015505,-0.00005417,0.00
 004578,0.00005850,0.00000350,-0.00000036,0.00000564,-0.00001086,-0.000
 02268,-0.00002709,0.00001017,0.00002385,-0.00002292,-0.00000782,-0.000
 00079,-0.00000786,0.00000543,0.00000174,-0.00000359,-0.00006048,0.0000
 4825,-0.00004799,0.00000954,-0.00001043,0.00000558,-0.00004536,-0.0000
 3164,-0.00000323,0.00000246,-0.00001065,0.00000874,0.10231859,0.159803
 71,-0.00020867,-0.00020905,-0.00008066,-0.00064663,-0.00228966,0.00474
 306,-0.00443591,-0.00418423,0.00001826,0.00078282,0.00082617,-0.003226
 16,-0.00005041,0.00018952,0.00000026,-0.00014279,-0.00010311,0.0003610
 2,-0.00005696,0.00000744,-0.00009079,-0.00000391,0.00004176,0.00004316
 ,-0.00001432,-0.00000101,-0.00000167,0.00003655,0.00000832,-0.00002413
 ,-0.00001187,-0.00000006,0.00001732,-0.00002643,-0.00000252,0.00001133
 ,0.00031262,0.00015107,0.00011592,0.00001202,0.00000561,0.00000567,-0.
 00083226,0.00073070,0.00004113,-0.10068828,-0.10137095,-0.13234493,-0.
 00344958,-0.00537768,0.00026914,0.00150923,0.00085883,-0.00181081,-0.0
 0271478,-0.00104365,0.00415929,0.00044078,0.00067319,-0.00045349,-0.00
 012706,0.00004064,-0.00005697,0.00003739,0.00000947,0.00000836,-0.0000
 1336,-0.00000024,0.00002214,-0.00000463,-0.00001045,-0.00001105,0.0000
 1418,0.00000096,-0.00000610,0.00000288,-0.00000420,-0.00000624,0.00000
 379,-0.00000137,-0.00000394,-0.00003605,0.00003437,-0.00001643,-0.0000
 0316,-0.00000936,0.00000259,-0.00000660,-0.00000309,-0.00000252,0.0000
 0214,-0.00000620,-0.00000257,0.11023247,0.11102760,0.12877554,-0.00048
 378,0.00024872,-0.00003724,0.00254497,0.00157703,-0.00194869,0.0007283
 8,-0.00049953,0.00052443,-0.00036537,-0.00002563,0.00010601,-0.0000084
 3,-0.00010856,0.00004313,-0.00000071,0.00001505,-0.00007345,0.00001684
 ,0.00001109,0.00002666,-0.00000113,-0.00000680,-0.00000512,0.00000237,
 -0.00000361,0.00000026,-0.00000873,-0.00000008,0.00000457,0.00000296,0
 .00000065,-0.00000350,0.00000666,0.00000071,-0.00000289,0.00001198,-0.
 00002340,0.00001486,-0.00000212,0.00000114,-0.00000125,-0.00000764,0.0
 0006630,-0.00001972,0.00022303,-0.00179087,-0.00323544,-0.01098203,0.0
 0751970,-0.00333715,0.00030956,0.00007752,0.00127731,-0.29451227,0.083
 96057,-0.07894236,-0.00279184,0.00125792,-0.00303253,0.00014480,0.0000
 1734,0.00018442,0.00000251,0.00000532,0.00000810,0.00000534,-0.0000014
 3,-0.00000698,-0.00000045,0.00000359,0.00000289,-0.00000035,-0.0000001
 6,-0.00000023,-0.00000029,0.00000076,0.00000242,-0.00000117,0.,0.00000
 076,0.00000026,-0.00000083,-0.00000136,0.00000076,0.00000088,0.0000004
 8,-0.00000038,-0.00000064,-0.00000011,-0.00000013,-0.00000045,-0.00000
 032,-0.00041697,0.00029504,-0.00002928,0.30578060,0.00167702,-0.000419
 39,0.00066283,0.00160920,-0.00270730,-0.00447384,-0.00009044,-0.001061
 88,-0.00010116,-0.00020490,-0.00010582,0.00015403,0.00008102,-0.000031
 11,0.00009753,-0.00001472,0.00005834,-0.00003329,0.00000778,0.00000264
 ,0.00001090,0.00000040,-0.00000417,-0.00000441,0.00000100,-0.00000505,
 -0.00000420,-0.00000498,0.00000088,0.00000563,0.00000182,0.00000118,-0
 .00000284,0.00000460,0.00000025,-0.00000239,0.00002678,0.00000249,0.00
 001946,-0.00000157,0.00000173,0.00000402,0.00002203,0.00011061,0.00001
 933,-0.00180070,-0.00128144,-0.00399271,-0.01680204,0.00810520,-0.0057
 8765,-0.00116040,0.00075627,0.00092773,0.08544127,-0.08240768,0.019332
 18,0.02523939,-0.00340887,0.00773897,-0.00023597,-0.00033217,-0.000158
 01,-0.00000174,0.00000333,0.00000484,0.00000276,-0.00000017,-0.0000035
 2,-0.00000199,0.00000325,0.00000310,-0.00000062,-0.00000045,-0.0000002
 4,-0.00000102,-0.00000069,0.00000265,-0.00000063,-0.00000006,0.0000002
 6,-0.00000020,0.00000032,0.00000069,0.00000227,0.00000163,0.00000030,0
 .00000062,-0.00000001,-0.00000011,0.00000019,-0.00000029,-0.00000010,-
 0.00084053,0.00053793,-0.00010894,-0.09171725,0.08188429,0.00065255,-0
 .00005813,0.00011461,-0.00188769,-0.00445244,0.00539705,0.00071620,-0.
 00031305,-0.00074781,0.00005941,0.00021786,-0.00050614,0.00008613,0.00
 003824,-0.00006845,-0.00005606,-0.00002933,0.00005725,-0.00000828,0.00
 001142,0.00001270,0.00000019,-0.00000100,-0.00000312,-0.00000139,-0.00
 000195,-0.00000336,-0.00000199,-0.00000263,0.00001087,0.00000027,0.000
 00346,-0.00000741,0.00000166,0.00000150,-0.00000394,0.00002577,0.00002
 266,0.00001321,-0.00000207,0.00000504,0.00000399,-0.00000615,0.0000142
 2,0.00007080,-0.00326162,-0.00396546,0.00200867,-0.01479344,0.00549315
 ,-0.00045941,0.00069131,0.00149514,-0.00130641,-0.07823687,0.01857949,
 -0.06677943,0.00823269,-0.00327572,0.00726610,0.00003001,-0.00003771,-
 0.00024147,0.00001190,-0.00000312,-0.00000016,0.00000152,-0.00000116,-
 0.00000250,-0.00000087,0.00000428,0.00000652,-0.00000109,-0.00000204,0
 .00000097,-0.00000101,-0.00000021,0.00000424,0.00000008,-0.00000049,0.
 00000041,0.00000191,-0.00000060,-0.00000138,0.00000240,0.00000116,0.00
 000045,-0.00000015,0.00000017,-0.00000036,0.00000008,-0.00000062,-0.00
 000064,-0.00057270,0.00041292,-0.00012607,0.08676012,-0.01613257,0.058
 42987,0.00228034,-0.00169926,0.00177696,-0.01105879,-0.01788047,-0.015
 96660,-0.00343710,0.00307191,-0.00242837,0.00016346,-0.00135459,-0.000
 54042,0.00012033,0.00018165,0.00010790,0.00001501,0.00005321,0.0000364
 1,-0.00000499,-0.00001970,-0.00004793,0.00000163,0.00002090,0.00002604
 ,-0.00001118,-0.00000353,0.00000648,0.00001452,0.00001184,-0.00002873,
 -0.00000261,-0.00000579,0.00002082,-0.00001090,-0.00000474,0.00001197,
 0.00005135,-0.00015059,0.00004055,-0.00003768,0.00005251,-0.00002458,-
 0.00061725,0.00025508,-0.00017366,-0.00078874,0.00120796,0.00062182,0.
 00165786,0.00310803,-0.00125877,0.00012242,0.00084891,0.00035798,0.010
 38547,0.00773317,0.00705744,-0.15197641,-0.09688273,-0.09987715,-0.000
 37825,-0.00009845,0.00005922,-0.00002256,0.00000170,-0.00000178,-0.000
 00504,0.00000043,0.00001028,-0.00000489,-0.00000892,-0.00001296,0.0000
 0362,0.00000736,-0.00000552,-0.00000132,-0.00000115,-0.00000872,0.0000
 0086,-0.00000046,-0.00000100,-0.00002073,0.00001308,-0.00000750,0.0000
 0256,-0.00000262,0.00000058,-0.00002020,-0.00001405,0.00000051,0.00000
 162,-0.00000187,0.00000309,-0.00002614,-0.00017116,0.00011607,-0.00019
 724,-0.00123843,0.00155717,0.15380094,-0.00134310,0.00026869,0.0010097
 1,0.00727404,0.00935772,0.00548829,0.00259578,0.00028898,-0.00104948,0
 .00028221,0.00045493,0.00033121,0.00001046,0.00003956,-0.00000048,-0.0
 0002863,0.00000901,-0.00000350,-0.00000164,0.00000838,0.00001405,0.000
 00044,-0.00001251,-0.00000967,0.00000329,-0.00000019,-0.00000589,-0.00
 001328,-0.00000264,0.00000860,0.00000432,0.00000148,-0.00000488,0.0000
 1088,0.00000068,-0.00000373,-0.00000399,0.00007287,0.00001051,0.000013
 85,-0.00002107,0.00001397,0.00026522,-0.00012704,0.00013179,0.00054037
 ,-0.00047900,0.00046870,0.00340088,-0.00130652,-0.00257737,-0.00021995
 ,-0.00118679,-0.00076624,-0.01665495,-0.01181367,-0.01469628,-0.097994
 13,-0.15748901,-0.10318000,-0.00009155,-0.00000348,0.00023887,0.000006
 35,-0.00000204,-0.00000054,0.00000089,-0.00000016,-0.00000254,0.000002
 53,0.00000553,0.00000359,-0.00000211,-0.00000312,0.00000167,-0.0000015
 8,0.00000287,0.00000367,-0.00000152,-0.00000005,0.00000092,0.00001055,
 -0.00000646,0.00000698,-0.00000008,0.00000163,0.00000026,0.00000944,0.
 00000559,0.00000024,-0.00000166,0.00000058,-0.00000160,-0.00016402,-0.
 00001483,0.00012013,-0.00088010,0.00029623,0.00197754,0.10297076,0.161
 65384,0.00188760,0.00086034,-0.00193963,-0.00399739,-0.00631459,0.0001
 9714,-0.00268284,-0.00079752,0.00339700,0.00021167,-0.00039112,-0.0001
 1155,0.00005530,0.00008058,0.00007520,-0.00001311,0.00002276,0.0000309
 6,-0.00000836,-0.00000931,-0.00001920,-0.00000142,0.00000938,0.0000049
 3,-0.00000084,0.00000306,0.00000505,0.00001094,0.00000014,-0.00000449,
 -0.00000442,-0.00000099,0.00000095,-0.00000997,-0.00000015,0.00000231,
 0.00003425,-0.00002754,-0.00001036,-0.00000563,0.00001302,-0.00000287,
 -0.00013978,0.00010159,-0.00012234,0.00029916,0.00080394,-0.00040038,-
 0.00110026,-0.00273553,0.00572179,-0.00014978,-0.00026142,0.00002365,-
 0.00440535,-0.00339325,-0.00063808,-0.10043485,-0.10260889,-0.13017413
 ,0.00006777,0.00023354,-0.00045320,-0.00000612,0.00000073,-0.00000151,
 -0.00000296,0.00000093,0.00000448,-0.00000098,-0.00000380,-0.00000053,
 0.00000175,0.00000195,-0.00000121,0.00000017,-0.00000306,-0.00000086,0
 .00000147,0.00000040,-0.00000028,-0.00001065,0.00000600,-0.00000539,0.
 00000100,-0.00000091,0.00000002,-0.00000439,-0.00000311,0.00000065,0.0
 0000083,-0.00000058,0.00000018,0.00011359,0.00012039,-0.00032967,0.001
 72117,0.00182151,-0.00313964,0.10857243,0.11247152,0.12789104\\0.00000
 961,0.00000412,0.00000396,-0.00000177,0.00000549,-0.00000314,-0.000002
 45,0.00000361,-0.00000345,-0.00000363,-0.00001647,0.00000137,-0.000017
 31,0.00001055,-0.00000323,0.00000838,-0.00000560,-0.00000657,0.0000013
 6,-0.00000685,0.00000237,-0.00000326,0.00000248,-0.00000306,-0.0000020
 7,-0.00000094,0.00000145,-0.00000493,-0.00000043,-0.00000358,0.0000096
 3,-0.00000218,0.00000438,0.00000295,-0.00000440,0.00000190,-0.00001246
 ,0.00000765,0.00000034,0.00000415,-0.00000687,-0.00000110,0.00001524,-
 0.00000563,0.00000207,0.00000200,0.00000719,0.00000188,0.00000731,-0.0
 0000690,-0.00000288,0.00000184,0.00001151,0.00000328,-0.00000058,0.000
 00790,-0.00000082,-0.00000057,0.00000928,0.00000070,-0.00000851,-0.000
 00039,-0.00000678,-0.00000617,-0.00000272,-0.00000058,-0.00000306,-0.0
 0000401,0.00000174,-0.00000261,-0.00000166,-0.00000033,0.00000154,-0.0
 0000100,0.00000242,-0.00000049,-0.00000004,0.00000029,-0.00000145,-0.0
 0000185,0.00000311,0.00000070,-0.00000473,0.00000016,0.00000021,-0.000
 00479,0.00000280,-0.00000044,-0.00000506,0.00000211,0.00000122,-0.0000
 0366,0.00000161,0.00000226,0.00000102,0.00000099,0.00000303,0.00000877
 ,-0.00000061,0.00000032,0.00000661,-0.00000279\\\@


 IF YOU WISH TO UNDERSTAND THE FRAGRANCE OF THE ROSE, 
 OR THE TENACITY OF THE OAK; 
 IF YOU ARE NOT SATISFIED UNTIL YOU KNOW THE SECRET PATHS 
 BY WHICH THE SUNSHINE AND THE AIR ACHIEVE THESE WONDERS; 
 IF YOU WISH TO SEE THE PATTERN WHICH UNDERLIES ONE LARGE FIELD OF 
 HUMAN EXPERIENCE AND HUMAN MEASUREMENT, THEN TAKE UP CHEMISTRY.

                                         -- C. A. COULSON, 1973.
 Job cpu time:  0 days  8 hours 14 minutes 26.3 seconds.
 File lengths (MBytes):  RWF=    866 Int=      0 D2E=      0 Chk=     20 Scr=      1
 Normal termination of Gaussian 09 at Sat Mar 23 00:29:43 2019.
