 Entering Gaussian System, Link 0=g09
 Initial command:
 /home/yuheng/proj/yuheng/g09/l1.exe /home/yuheng/proj/yuheng/g09_scratch/Gau-51628.inp -scrdir=/home/yuheng/proj/yuheng/g09_scratch/
 Entering Link 1 = /home/yuheng/proj/yuheng/g09/l1.exe PID=     51629.
  
 Copyright (c) 1988,1990,1992,1993,1995,1998,2003,2009,2010,
            Gaussian, Inc.  All Rights Reserved.
  
 This is part of the Gaussian(R) 09 program.  It is based on
 the Gaussian(R) 03 system (copyright 2003, Gaussian, Inc.),
 the Gaussian(R) 98 system (copyright 1998, Gaussian, Inc.),
 the Gaussian(R) 94 system (copyright 1995, Gaussian, Inc.),
 the Gaussian 92(TM) system (copyright 1992, Gaussian, Inc.),
 the Gaussian 90(TM) system (copyright 1990, Gaussian, Inc.),
 the Gaussian 88(TM) system (copyright 1988, Gaussian, Inc.),
 the Gaussian 86(TM) system (copyright 1986, Carnegie Mellon
 University), and the Gaussian 82(TM) system (copyright 1983,
 Carnegie Mellon University). Gaussian is a federally registered
 trademark of Gaussian, Inc.
  
 This software contains proprietary and confidential information,
 including trade secrets, belonging to Gaussian, Inc.
  
 This software is provided under written license and may be
 used, copied, transmitted, or stored only in accord with that
 written license.
  
 The following legend is applicable only to US Government
 contracts under FAR:
  
                    RESTRICTED RIGHTS LEGEND
  
 Use, reproduction and disclosure by the US Government is
 subject to restrictions as set forth in subparagraphs (a)
 and (c) of the Commercial Computer Software - Restricted
 Rights clause in FAR 52.227-19.
  
 Gaussian, Inc.
 340 Quinnipiac St., Bldg. 40, Wallingford CT 06492
  
  
 ---------------------------------------------------------------
 Warning -- This program may not be used in any manner that
 competes with the business of Gaussian, Inc. or will provide
 assistance to any competitor of Gaussian, Inc.  The licensee
 of this program is prohibited from giving any competitor of
 Gaussian, Inc. access to this program.  By using this program,
 the user acknowledges that Gaussian, Inc. is engaged in the
 business of creating and licensing software in the field of
 computational chemistry and represents and warrants to the
 licensee that it is not a competitor of Gaussian, Inc. and that
 it will not use this program in any manner prohibited above.
 ---------------------------------------------------------------
  

 Cite this work as:
 Gaussian 09, Revision B.01,
 M. J. Frisch, G. W. Trucks, H. B. Schlegel, G. E. Scuseria, 
 M. A. Robb, J. R. Cheeseman, G. Scalmani, V. Barone, B. Mennucci, 
 G. A. Petersson, H. Nakatsuji, M. Caricato, X. Li, H. P. Hratchian, 
 A. F. Izmaylov, J. Bloino, G. Zheng, J. L. Sonnenberg, M. Hada, 
 M. Ehara, K. Toyota, R. Fukuda, J. Hasegawa, M. Ishida, T. Nakajima, 
 Y. Honda, O. Kitao, H. Nakai, T. Vreven, J. A. Montgomery, Jr., 
 J. E. Peralta, F. Ogliaro, M. Bearpark, J. J. Heyd, E. Brothers, 
 K. N. Kudin, V. N. Staroverov, T. Keith, R. Kobayashi, J. Normand, 
 K. Raghavachari, A. Rendell, J. C. Burant, S. S. Iyengar, J. Tomasi, 
 M. Cossi, N. Rega, J. M. Millam, M. Klene, J. E. Knox, J. B. Cross, 
 V. Bakken, C. Adamo, J. Jaramillo, R. Gomperts, R. E. Stratmann, 
 O. Yazyev, A. J. Austin, R. Cammi, C. Pomelli, J. W. Ochterski, 
 R. L. Martin, K. Morokuma, V. G. Zakrzewski, G. A. Voth, 
 P. Salvador, J. J. Dannenberg, S. Dapprich, A. D. Daniels, 
 O. Farkas, J. B. Foresman, J. V. Ortiz, J. Cioslowski, 
 and D. J. Fox, Gaussian, Inc., Wallingford CT, 2010.
 
 ******************************************
 Gaussian 09:  EM64L-G09RevB.01 12-Aug-2010
                22-Mar-2019 
 ******************************************
 %mem=16gb
 %nprocshared=20
 Will use up to   20 processors via shared memory.
 %chk=1b-conf-6.chk
 ----------------------------------------------------------------------
 # m062x/6-31+G(d,p) opt freq=noraman integral(ultrafinegrid) scrf=(ief
 pcm,read,solvent=methanol)
 ----------------------------------------------------------------------
 1/14=-1,18=20,19=15,26=3,38=1,40=2/1,3;
 2/9=110,12=2,17=6,18=5,40=1/2;
 3/5=1,6=6,7=111,11=2,16=1,25=1,30=1,70=2203,71=1,72=3,74=-55,75=-5/1,2,3;
 4//1;
 5/5=2,38=5,53=3/2;
 6/7=2,8=2,9=2,10=2,28=1/1;
 7//1,2,3,16;
 1/14=-1,18=20,19=15/3(2);
 2/9=110/2;
 99//99;
 2/9=110/2;
 3/5=1,6=6,7=111,11=2,16=1,25=1,30=1,70=2205,71=1,72=3,74=-55,75=-5/1,2,3;
 4/5=5,16=3/1;
 5/5=2,38=5,53=3/2;
 7//1,2,3,16;
 1/14=-1,18=20,19=15/3(-5);
 2/9=110/2;
 6/7=2,8=2,9=2,10=2,19=2,28=1/1;
 99/9=1/99;
 ----------------------------------------------------------------------
 Candidate Structure: 1b, Conformer: 6 geometry optimization and freque
 ncy calculation with methanol solvation
 ----------------------------------------------------------------------
 Symbolic Z-matrix:
 Charge =  0 Multiplicity = 1
 O                    -1.50641   0.22915  -0.58011 
 C                    -1.69257   1.5603   -0.32702 
 C                    -1.05408   2.58607  -1.07922 
 C                    -0.12696   2.28334  -2.2047 
 N                     0.4814    3.17428  -2.87419 
 C                     1.33882   2.52022  -3.83073 
 C                     2.81947   2.81911  -3.47474 
 O                     2.93845   4.2201   -3.6424 
 C                     3.24448   2.47165  -2.02017 
 C                     4.74029   2.19705  -1.84199 
 O                     5.12959   2.36526  -0.55103 
 O                     5.48747   1.81564  -2.73809 
 C                     0.86347   1.05574  -3.82153 
 C                     1.9151   -0.0591   -3.94927 
 O                     0.1451    1.00254  -2.6065 
 C                    -1.30514   3.9383   -0.74582 
 C                    -2.17147   4.26839   0.31196 
 Cl                   -2.46398   5.92288   0.7024 
 C                    -2.79891   3.25018   1.05128 
 C                    -2.55878   1.90127   0.73104 
 H                    -0.92074   0.06943  -1.31077 
 H                     1.1446    2.91896  -4.82929 
 H                     3.46787   2.32801  -4.20233 
 H                     2.12846   4.58124  -3.29734 
 H                     2.7335    1.5756   -1.67496 
 H                     2.93341   3.25973  -1.33317 
 H                     6.05252   2.17746  -0.47807 
 H                     0.13419   0.92498  -4.62366 
 H                     2.6279   -0.07009  -3.12757 
 H                     1.43244  -1.03634  -3.96617 
 H                     2.47763   0.04163  -4.87779 
 H                    -0.83396   4.73634  -1.30103 
 H                    -3.46405   3.50385   1.86363 
 H                    -3.043     1.12207   1.30189 
 

 GradGradGradGradGradGradGradGradGradGradGradGradGradGradGradGradGradGrad
 Berny optimization.
 Initialization pass.
                           ----------------------------
                           !    Initial Parameters    !
                           ! (Angstroms and Degrees)  !
 --------------------------                            --------------------------
 ! Name  Definition              Value          Derivative Info.                !
 --------------------------------------------------------------------------------
 ! R1    R(1,2)                  1.3677         estimate D2E/DX2                !
 ! R2    R(1,21)                 0.9499         estimate D2E/DX2                !
 ! R3    R(2,3)                  1.4233         estimate D2E/DX2                !
 ! R4    R(2,20)                 1.4093         estimate D2E/DX2                !
 ! R5    R(3,4)                  1.4893         estimate D2E/DX2                !
 ! R6    R(3,16)                 1.4152         estimate D2E/DX2                !
 ! R7    R(4,5)                  1.2697         estimate D2E/DX2                !
 ! R8    R(4,15)                 1.3696         estimate D2E/DX2                !
 ! R9    R(5,6)                  1.4415         estimate D2E/DX2                !
 ! R10   R(6,7)                  1.5519         estimate D2E/DX2                !
 ! R11   R(6,13)                 1.5397         estimate D2E/DX2                !
 ! R12   R(6,22)                 1.0926         estimate D2E/DX2                !
 ! R13   R(7,8)                  1.416          estimate D2E/DX2                !
 ! R14   R(7,9)                  1.5547         estimate D2E/DX2                !
 ! R15   R(7,23)                 1.0913         estimate D2E/DX2                !
 ! R16   R(8,24)                 0.9516         estimate D2E/DX2                !
 ! R17   R(9,10)                 1.5312         estimate D2E/DX2                !
 ! R18   R(9,25)                 1.0877         estimate D2E/DX2                !
 ! R19   R(9,26)                 1.0908         estimate D2E/DX2                !
 ! R20   R(10,11)                1.3588         estimate D2E/DX2                !
 ! R21   R(10,12)                1.2275         estimate D2E/DX2                !
 ! R22   R(11,27)                0.9447         estimate D2E/DX2                !
 ! R23   R(13,14)                1.5379         estimate D2E/DX2                !
 ! R24   R(13,15)                1.4125         estimate D2E/DX2                !
 ! R25   R(13,28)                1.092          estimate D2E/DX2                !
 ! R26   R(14,29)                1.0878         estimate D2E/DX2                !
 ! R27   R(14,30)                1.0901         estimate D2E/DX2                !
 ! R28   R(14,31)                1.0903         estimate D2E/DX2                !
 ! R29   R(15,21)                1.9198         estimate D2E/DX2                !
 ! R30   R(16,17)                1.4066         estimate D2E/DX2                !
 ! R31   R(16,32)                1.0803         estimate D2E/DX2                !
 ! R32   R(17,18)                1.7249         estimate D2E/DX2                !
 ! R33   R(17,19)                1.4061         estimate D2E/DX2                !
 ! R34   R(19,20)                1.407          estimate D2E/DX2                !
 ! R35   R(19,33)                1.0801         estimate D2E/DX2                !
 ! R36   R(20,34)                1.0805         estimate D2E/DX2                !
 ! A1    A(2,1,21)             112.9476         estimate D2E/DX2                !
 ! A2    A(1,2,3)              122.8595         estimate D2E/DX2                !
 ! A3    A(1,2,20)             117.2627         estimate D2E/DX2                !
 ! A4    A(3,2,20)             119.8778         estimate D2E/DX2                !
 ! A5    A(2,3,4)              122.1531         estimate D2E/DX2                !
 ! A6    A(2,3,16)             118.9836         estimate D2E/DX2                !
 ! A7    A(4,3,16)             118.8631         estimate D2E/DX2                !
 ! A8    A(3,4,5)              123.6511         estimate D2E/DX2                !
 ! A9    A(3,4,15)             122.3742         estimate D2E/DX2                !
 ! A10   A(5,4,15)             113.9746         estimate D2E/DX2                !
 ! A11   A(4,5,6)              108.452          estimate D2E/DX2                !
 ! A12   A(5,6,7)              109.1411         estimate D2E/DX2                !
 ! A13   A(5,6,13)             104.12           estimate D2E/DX2                !
 ! A14   A(5,6,22)             109.5801         estimate D2E/DX2                !
 ! A15   A(7,6,13)             118.4485         estimate D2E/DX2                !
 ! A16   A(7,6,22)             107.9965         estimate D2E/DX2                !
 ! A17   A(13,6,22)            107.3187         estimate D2E/DX2                !
 ! A18   A(6,7,8)              104.0967         estimate D2E/DX2                !
 ! A19   A(6,7,9)              115.6194         estimate D2E/DX2                !
 ! A20   A(6,7,23)             109.1019         estimate D2E/DX2                !
 ! A21   A(8,7,9)              107.9953         estimate D2E/DX2                !
 ! A22   A(8,7,23)             108.4437         estimate D2E/DX2                !
 ! A23   A(9,7,23)             111.1475         estimate D2E/DX2                !
 ! A24   A(7,8,24)             105.131          estimate D2E/DX2                !
 ! A25   A(7,9,10)             114.5822         estimate D2E/DX2                !
 ! A26   A(7,9,25)             110.6471         estimate D2E/DX2                !
 ! A27   A(7,9,26)             110.4763         estimate D2E/DX2                !
 ! A28   A(10,9,25)            105.9171         estimate D2E/DX2                !
 ! A29   A(10,9,26)            109.5644         estimate D2E/DX2                !
 ! A30   A(25,9,26)            105.1483         estimate D2E/DX2                !
 ! A31   A(9,10,11)            111.6061         estimate D2E/DX2                !
 ! A32   A(9,10,12)            124.43           estimate D2E/DX2                !
 ! A33   A(11,10,12)           123.8927         estimate D2E/DX2                !
 ! A34   A(10,11,27)           109.1878         estimate D2E/DX2                !
 ! A35   A(6,13,14)            118.547          estimate D2E/DX2                !
 ! A36   A(6,13,15)            101.4188         estimate D2E/DX2                !
 ! A37   A(6,13,28)            108.403          estimate D2E/DX2                !
 ! A38   A(14,13,15)           113.0738         estimate D2E/DX2                !
 ! A39   A(14,13,28)           107.9908         estimate D2E/DX2                !
 ! A40   A(15,13,28)           106.7214         estimate D2E/DX2                !
 ! A41   A(13,14,29)           113.1192         estimate D2E/DX2                !
 ! A42   A(13,14,30)           110.389          estimate D2E/DX2                !
 ! A43   A(13,14,31)           110.8897         estimate D2E/DX2                !
 ! A44   A(29,14,30)           107.025          estimate D2E/DX2                !
 ! A45   A(29,14,31)           107.8265         estimate D2E/DX2                !
 ! A46   A(30,14,31)           107.3422         estimate D2E/DX2                !
 ! A47   A(4,15,13)            108.5507         estimate D2E/DX2                !
 ! A48   A(3,16,17)            120.7094         estimate D2E/DX2                !
 ! A49   A(3,16,32)            120.4904         estimate D2E/DX2                !
 ! A50   A(17,16,32)           118.8002         estimate D2E/DX2                !
 ! A51   A(16,17,18)           119.9847         estimate D2E/DX2                !
 ! A52   A(16,17,19)           120.022          estimate D2E/DX2                !
 ! A53   A(18,17,19)           119.9933         estimate D2E/DX2                !
 ! A54   A(17,19,20)           119.8943         estimate D2E/DX2                !
 ! A55   A(17,19,33)           120.0117         estimate D2E/DX2                !
 ! A56   A(20,19,33)           120.094          estimate D2E/DX2                !
 ! A57   A(2,20,19)            120.5129         estimate D2E/DX2                !
 ! A58   A(2,20,34)            119.8424         estimate D2E/DX2                !
 ! A59   A(19,20,34)           119.6447         estimate D2E/DX2                !
 ! D1    D(21,1,2,3)            -0.7458         estimate D2E/DX2                !
 ! D2    D(21,1,2,20)          179.3034         estimate D2E/DX2                !
 ! D3    D(1,2,3,4)             -0.112          estimate D2E/DX2                !
 ! D4    D(1,2,3,16)          -179.9629         estimate D2E/DX2                !
 ! D5    D(20,2,3,4)           179.8376         estimate D2E/DX2                !
 ! D6    D(20,2,3,16)           -0.0133         estimate D2E/DX2                !
 ! D7    D(1,2,20,19)          179.9609         estimate D2E/DX2                !
 ! D8    D(1,2,20,34)           -0.0308         estimate D2E/DX2                !
 ! D9    D(3,2,20,19)            0.0085         estimate D2E/DX2                !
 ! D10   D(3,2,20,34)         -179.9832         estimate D2E/DX2                !
 ! D11   D(2,3,4,5)           -178.3121         estimate D2E/DX2                !
 ! D12   D(2,3,4,15)             1.5606         estimate D2E/DX2                !
 ! D13   D(16,3,4,5)             1.539          estimate D2E/DX2                !
 ! D14   D(16,3,4,15)         -178.5883         estimate D2E/DX2                !
 ! D15   D(2,3,16,17)            0.0078         estimate D2E/DX2                !
 ! D16   D(2,3,16,32)         -179.9607         estimate D2E/DX2                !
 ! D17   D(4,3,16,17)         -179.848          estimate D2E/DX2                !
 ! D18   D(4,3,16,32)            0.1835         estimate D2E/DX2                !
 ! D19   D(3,4,5,6)            177.0934         estimate D2E/DX2                !
 ! D20   D(15,4,5,6)            -2.7889         estimate D2E/DX2                !
 ! D21   D(3,4,15,13)          170.0632         estimate D2E/DX2                !
 ! D22   D(5,4,15,13)          -10.0528         estimate D2E/DX2                !
 ! D23   D(4,5,6,7)           -114.2143         estimate D2E/DX2                !
 ! D24   D(4,5,6,13)            13.1779         estimate D2E/DX2                !
 ! D25   D(4,5,6,22)           127.7146         estimate D2E/DX2                !
 ! D26   D(5,6,7,8)            -64.0995         estimate D2E/DX2                !
 ! D27   D(5,6,7,9)             54.1741         estimate D2E/DX2                !
 ! D28   D(5,6,7,23)          -179.7049         estimate D2E/DX2                !
 ! D29   D(13,6,7,8)           177.1011         estimate D2E/DX2                !
 ! D30   D(13,6,7,9)           -64.6253         estimate D2E/DX2                !
 ! D31   D(13,6,7,23)           61.4957         estimate D2E/DX2                !
 ! D32   D(22,6,7,8)            54.9611         estimate D2E/DX2                !
 ! D33   D(22,6,7,9)           173.2347         estimate D2E/DX2                !
 ! D34   D(22,6,7,23)          -60.6443         estimate D2E/DX2                !
 ! D35   D(5,6,13,14)         -142.3177         estimate D2E/DX2                !
 ! D36   D(5,6,13,15)          -17.9122         estimate D2E/DX2                !
 ! D37   D(5,6,13,28)           94.2079         estimate D2E/DX2                !
 ! D38   D(7,6,13,14)          -20.9292         estimate D2E/DX2                !
 ! D39   D(7,6,13,15)          103.4762         estimate D2E/DX2                !
 ! D40   D(7,6,13,28)         -144.4036         estimate D2E/DX2                !
 ! D41   D(22,6,13,14)         101.5519         estimate D2E/DX2                !
 ! D42   D(22,6,13,15)        -134.0426         estimate D2E/DX2                !
 ! D43   D(22,6,13,28)         -21.9225         estimate D2E/DX2                !
 ! D44   D(6,7,8,24)            39.7918         estimate D2E/DX2                !
 ! D45   D(9,7,8,24)           -83.597          estimate D2E/DX2                !
 ! D46   D(23,7,8,24)          155.8592         estimate D2E/DX2                !
 ! D47   D(6,7,9,10)           155.195          estimate D2E/DX2                !
 ! D48   D(6,7,9,25)            35.5479         estimate D2E/DX2                !
 ! D49   D(6,7,9,26)           -80.4791         estimate D2E/DX2                !
 ! D50   D(8,7,9,10)           -88.7154         estimate D2E/DX2                !
 ! D51   D(8,7,9,25)           151.6375         estimate D2E/DX2                !
 ! D52   D(8,7,9,26)            35.6104         estimate D2E/DX2                !
 ! D53   D(23,7,9,10)           30.1212         estimate D2E/DX2                !
 ! D54   D(23,7,9,25)          -89.5259         estimate D2E/DX2                !
 ! D55   D(23,7,9,26)          154.4471         estimate D2E/DX2                !
 ! D56   D(7,9,10,11)          158.4419         estimate D2E/DX2                !
 ! D57   D(7,9,10,12)          -24.5303         estimate D2E/DX2                !
 ! D58   D(25,9,10,11)         -79.3042         estimate D2E/DX2                !
 ! D59   D(25,9,10,12)          97.7236         estimate D2E/DX2                !
 ! D60   D(26,9,10,11)          33.6337         estimate D2E/DX2                !
 ! D61   D(26,9,10,12)        -149.3384         estimate D2E/DX2                !
 ! D62   D(9,10,11,27)         179.3044         estimate D2E/DX2                !
 ! D63   D(12,10,11,27)          2.2576         estimate D2E/DX2                !
 ! D64   D(6,13,14,29)          62.2781         estimate D2E/DX2                !
 ! D65   D(6,13,14,30)        -177.8333         estimate D2E/DX2                !
 ! D66   D(6,13,14,31)         -59.0024         estimate D2E/DX2                !
 ! D67   D(15,13,14,29)        -56.1937         estimate D2E/DX2                !
 ! D68   D(15,13,14,30)         63.6948         estimate D2E/DX2                !
 ! D69   D(15,13,14,31)       -177.4742         estimate D2E/DX2                !
 ! D70   D(28,13,14,29)       -174.0434         estimate D2E/DX2                !
 ! D71   D(28,13,14,30)        -54.1548         estimate D2E/DX2                !
 ! D72   D(28,13,14,31)         64.6761         estimate D2E/DX2                !
 ! D73   D(6,13,15,4)           16.8571         estimate D2E/DX2                !
 ! D74   D(14,13,15,4)         144.8791         estimate D2E/DX2                !
 ! D75   D(28,13,15,4)         -96.5319         estimate D2E/DX2                !
 ! D76   D(3,16,17,18)         179.9928         estimate D2E/DX2                !
 ! D77   D(3,16,17,19)           0.0026         estimate D2E/DX2                !
 ! D78   D(32,16,17,18)         -0.0382         estimate D2E/DX2                !
 ! D79   D(32,16,17,19)        179.9716         estimate D2E/DX2                !
 ! D80   D(16,17,19,20)         -0.0076         estimate D2E/DX2                !
 ! D81   D(16,17,19,33)        179.9917         estimate D2E/DX2                !
 ! D82   D(18,17,19,20)       -179.9978         estimate D2E/DX2                !
 ! D83   D(18,17,19,33)          0.0015         estimate D2E/DX2                !
 ! D84   D(17,19,20,2)           0.002          estimate D2E/DX2                !
 ! D85   D(17,19,20,34)        179.9937         estimate D2E/DX2                !
 ! D86   D(33,19,20,2)        -179.9973         estimate D2E/DX2                !
 ! D87   D(33,19,20,34)         -0.0056         estimate D2E/DX2                !
 --------------------------------------------------------------------------------
 Trust Radius=3.00D-01 FncErr=1.00D-07 GrdErr=1.00D-06
 Number of steps in this run=    192 maximum allowed number of steps=    204.
 GradGradGradGradGradGradGradGradGradGradGradGradGradGradGradGradGradGrad

                          Input orientation:                          
 ---------------------------------------------------------------------
 Center     Atomic      Atomic             Coordinates (Angstroms)
 Number     Number       Type             X           Y           Z
 ---------------------------------------------------------------------
      1          8           0       -1.506411    0.229150   -0.580105
      2          6           0       -1.692574    1.560297   -0.327015
      3          6           0       -1.054076    2.586067   -1.079223
      4          6           0       -0.126961    2.283339   -2.204704
      5          7           0        0.481401    3.174277   -2.874190
      6          6           0        1.338824    2.520222   -3.830732
      7          6           0        2.819473    2.819113   -3.474735
      8          8           0        2.938450    4.220100   -3.642403
      9          6           0        3.244480    2.471646   -2.020170
     10          6           0        4.740292    2.197052   -1.841989
     11          8           0        5.129587    2.365262   -0.551026
     12          8           0        5.487465    1.815635   -2.738091
     13          6           0        0.863465    1.055743   -3.821527
     14          6           0        1.915099   -0.059103   -3.949268
     15          8           0        0.145097    1.002541   -2.606496
     16          6           0       -1.305137    3.938296   -0.745821
     17          6           0       -2.171470    4.268386    0.311964
     18         17           0       -2.463983    5.922883    0.702398
     19          6           0       -2.798914    3.250178    1.051281
     20          6           0       -2.558781    1.901274    0.731037
     21          1           0       -0.920735    0.069427   -1.310773
     22          1           0        1.144598    2.918961   -4.829285
     23          1           0        3.467869    2.328008   -4.202330
     24          1           0        2.128462    4.581240   -3.297345
     25          1           0        2.733498    1.575596   -1.674960
     26          1           0        2.933405    3.259734   -1.333167
     27          1           0        6.052522    2.177457   -0.478066
     28          1           0        0.134189    0.924978   -4.623665
     29          1           0        2.627904   -0.070089   -3.127566
     30          1           0        1.432439   -1.036340   -3.966169
     31          1           0        2.477630    0.041633   -4.877786
     32          1           0       -0.833962    4.736343   -1.301031
     33          1           0       -3.464053    3.503847    1.863628
     34          1           0       -3.042999    1.122068    1.301894
 ---------------------------------------------------------------------
                    Distance matrix (angstroms):
                    1          2          3          4          5
     1  O    0.000000
     2  C    1.367722   0.000000
     3  C    2.451282   1.423271   0.000000
     4  C    2.960050   2.549441   1.489260   0.000000
     5  N    4.229420   3.717418   2.434253   1.269680   0.000000
     6  C    4.889882   4.731476   3.647068   2.201955   1.441504
     7  C    5.813782   5.643698   4.560391   3.252923   2.439954
     8  O    6.712834   6.285915   5.017990   3.900611   2.778666
     9  C    5.447343   5.298286   4.401824   3.381734   2.976180
    10  C    6.669804   6.639455   5.857290   4.881512   4.489829
    11  O    6.971391   6.873138   6.210107   5.511140   5.259014
    12  O    7.489202   7.578354   6.792435   5.659066   5.188941
    13  C    4.099559   4.358844   3.679550   2.258772   2.351937
    14  C    4.810518   5.362693   4.904088   3.563783   3.696759
    15  O    2.726146   2.980631   2.505620   1.369633   2.213865
    16  C    3.718298   2.445483   1.415172   2.501064   2.881909
    17  C    4.189692   2.823364   2.452380   3.801848   4.287934
    18  Cl   5.914419   4.548288   4.036874   5.211448   5.387217
    19  C    3.668596   2.445278   2.832764   4.321522   5.116205
    20  C    2.371197   1.409274   2.451555   3.831227   4.884763
    21  H    0.949949   1.945818   2.530785   2.516068   3.748380
    22  H    5.684933   5.492354   4.359811   2.984846   2.080243
    23  H    6.501475   6.499048   5.501671   4.112822   3.376258
    24  H    6.287796   5.705197   4.362262   3.400169   2.207128
    25  H    4.581316   4.626803   3.965056   2.993953   3.010959
    26  H    5.428030   5.029921   4.051953   3.328478   2.897305
    27  H    7.806650   7.771114   7.143675   6.417048   6.145930
    28  H    4.418837   4.711889   4.090753   2.786524   2.870638
    29  H    4.865353   5.400720   4.980748   3.738927   3.898408
    30  H    4.658727   5.454509   5.257285   4.068754   4.452661
    31  H    5.863259   6.356607   5.777211   4.353677   4.220520
    32  H    4.613752   3.431208   2.172864   2.708081   2.577801
    33  H    4.530765   3.422637   3.912887   5.401588   6.174313
    34  H    2.588499   2.160795   3.430572   4.706172   5.837177
                    6          7          8          9         10
     6  C    0.000000
     7  C    1.551899   0.000000
     8  O    2.341764   1.415992   0.000000
     9  C    2.629072   1.554710   2.404659   0.000000
    10  C    3.953419   2.596606   3.252822   1.531210   0.000000
    11  O    5.015014   3.753756   4.218781   2.392348   1.358834
    12  O    4.347589   2.944112   3.618938   2.444738   1.227496
    13  C    1.539724   2.656258   3.788245   3.304376   4.500105
    14  C    2.645574   3.054047   4.410555   3.448676   4.184803
    15  O    2.286284   3.347545   4.385044   3.479687   4.809069
    16  C    4.303271   5.070695   5.145642   4.947125   6.385979
    17  C    5.704399   6.430318   6.461473   6.164385   7.530099
    18  Cl   6.825592   7.415978   7.138841   7.204857   8.500429
    19  C    6.441099   7.227511   7.475879   6.823675   8.143692
    20  C    6.031928   6.888872   7.397532   6.447659   7.744961
    21  H    4.178779   5.121783   6.128450   4.860341   6.070931
    22  H    1.092623   2.156382   2.513873   3.535636   4.730127
    23  H    2.169761   1.091328   2.042992   2.198262   2.684664
    24  H    2.270644   1.901067   0.951613   2.706854   3.824143
    25  H    2.735834   2.189273   3.302459   1.087740   2.107446
    26  H    3.054079   2.189393   2.500980   1.090790   2.157089
    27  H    5.794550   4.454700   4.887010   3.217100   1.892780
    28  H    2.150510   3.481169   4.436731   4.341000   5.529202
    29  H    2.977563   2.916284   4.332115   2.840230   3.354820
    30  H    3.560371   4.126729   5.477504   4.401860   5.090074
    31  H    2.921747   3.130464   4.381565   3.828706   4.356780
    32  H    4.003945   4.663512   4.469857   4.720138   6.149223
    33  H    7.514046   8.273432   8.474753   7.820086   9.096735
    34  H    6.891956   7.750144   8.355932   7.238084   8.462813
                   11         12         13         14         15
    11  O    0.000000
    12  O    2.283291   0.000000
    13  C    5.532704   4.809641   0.000000
    14  C    5.268636   4.212290   1.537899   0.000000
    15  O    5.561214   5.405491   1.412510   2.462322   0.000000
    16  C    6.627070   7.390147   4.740455   6.050718   3.766158
    17  C    7.594213   8.601053   6.051252   7.320198   4.954759
    18  Cl   8.478800   9.588116   7.431478   8.752058   6.478105
    19  C    8.137051   9.223954   6.478644   7.627500   5.205613
    20  C    7.808327   8.762663   5.757823   6.764905   4.388371
    21  H    6.515709   6.793490   3.234204   3.875581   1.919791
    22  H    5.872837   4.944787   2.136865   3.199526   3.100397
    23  H    4.011822   2.546623   2.923455   2.858922   3.917188
    24  H    4.632448   4.386825   3.782078   4.690769   4.149469
    25  H    2.761891   2.961790   2.893963   2.917961   2.809977
    26  H    2.497006   3.253069   3.915886   4.346908   3.806698
    27  H    0.944671   2.357524   6.274017   5.845487   6.388138
    28  H    6.604151   5.745104   1.091956   2.143564   2.018689
    29  H    4.339114   3.447424   2.205068   1.087845   2.754338
    30  H    6.074784   5.107365   2.172893   1.090064   2.768212
    31  H    5.581485   4.096887   2.179365   1.090291   3.394527
    32  H    6.461304   7.110282   4.772942   6.129176   4.074810
    33  H    8.998754  10.205663   7.552590   8.684449   6.266139
    34  H    8.471718   9.464213   6.443159   7.317964   5.045171
                   16         17         18         19         20
    16  C    0.000000
    17  C    1.406557   0.000000
    18  Cl   2.716403   1.724924   0.000000
    19  C    2.436073   1.406067   2.716109   0.000000
    20  C    2.811084   2.434923   4.022828   1.407040   0.000000
    21  H    3.928751   4.672138   6.379453   4.384522   3.194972
    22  H    4.869797   6.264958   7.255682   7.088163   6.757802
    23  H    6.109179   7.479710   8.495078   8.229423   7.800046
    24  H    4.325882   5.622669   6.236065   6.705319   6.736492
    25  H    4.770348   5.937819   7.180846   6.390947   5.822637
    26  H    4.332512   5.457434   6.353557   6.208475   6.022496
    27  H    7.570165   8.522334   9.378303   9.046411   8.700158
    28  H    5.117560   6.391782   7.752193   6.798137   6.072732
    29  H    6.099891   7.327122   8.747094   7.611655   6.758461
    30  H    6.527784   7.709131   9.241667   7.839221   6.828115
    31  H    6.823961   8.149422   9.494582   8.560988   7.764187
    32  H    1.080344   2.147013   2.842283   3.406332   3.891262
    33  H    3.414511   2.159387   2.863622   1.080123   2.161139
    34  H    3.891586   3.411575   4.872626   2.156673   1.080512
                   21         22         23         24         25
    21  H    0.000000
    22  H    4.976482   0.000000
    23  H    5.720326   2.477879   0.000000
    24  H    5.796596   2.465360   2.773096   0.000000
    25  H    3.969206   3.778756   2.737339   3.468731   0.000000
    26  H    5.003294   3.941928   3.063635   2.500461   1.730060
    27  H    7.332360   6.600807   4.535773   5.396735   3.579206
    28  H    3.580515   2.244810   3.641351   4.370870   3.984291
    29  H    3.989115   3.745726   2.758900   4.681146   2.197611
    30  H    3.716353   4.058599   3.939237   5.699910   3.710068
    31  H    4.926788   3.171489   2.581535   4.819517   3.560422
    32  H    4.667733   4.434654   5.720434   3.575651   4.780891
    33  H    5.323582   8.147198   9.286010   7.685873   7.392523
    34  H    3.526767   7.639120   8.610585   7.737111   6.514236
                   26         27         28         29         30
    26  H    0.000000
    27  H    3.410486   0.000000
    28  H    4.910608   7.333578   0.000000
    29  H    3.794854   4.878455   3.073611   0.000000
    30  H    5.257552   6.621217   2.442237   1.751009   0.000000
    31  H    4.809182   6.057981   2.517259   1.760209   1.756558
    32  H    4.046537   7.392485   5.148176   6.198591   6.750067
    33  H    7.155876   9.889795   7.853845   8.648525   8.864280
    34  H    6.872450   9.327948   6.726486   7.293867   7.241599
                   31         32         33         34
    31  H    0.000000
    32  H    6.767579   0.000000
    33  H    9.630015   4.295520   0.000000
    34  H    8.356622   4.971725   2.483083   0.000000
 Stoichiometry    C13H14ClNO5
 Framework group  C1[X(C13H14ClNO5)]
 Deg. of freedom    96
 Full point group                 C1      NOp   1
 Largest Abelian subgroup         C1      NOp   1
 Largest concise Abelian subgroup C1      NOp   1
                         Standard orientation:                         
 ---------------------------------------------------------------------
 Center     Atomic      Atomic             Coordinates (Angstroms)
 Number     Number       Type             X           Y           Z
 ---------------------------------------------------------------------
      1          8           0        1.621476    2.654153    1.268831
      2          6           0        2.247594    1.519237    0.832246
      3          6           0        1.636062    0.594587   -0.060364
      4          6           0        0.257550    0.794855   -0.587136
      5          7           0       -0.326713   -0.026270   -1.359455
      6          6           0       -1.662753    0.453857   -1.609274
      7          6           0       -2.683695   -0.535719   -0.987335
      8          8           0       -2.489058   -1.734725   -1.715025
      9          6           0       -2.480642   -0.851208    0.521426
     10          6           0       -3.747010   -1.303803    1.253596
     11          8           0       -3.450635   -1.996609    2.384354
     12          8           0       -4.889497   -1.028087    0.899409
     13          6           0       -1.642298    1.905456   -1.096252
     14          6           0       -2.891527    2.450963   -0.384225
     15          8           0       -0.495558    1.894475   -0.271600
     16          6           0        2.359338   -0.554708   -0.458741
     17          6           0        3.662753   -0.784040    0.017616
     18         17           0        4.527306   -2.191262   -0.480014
     19          6           0        4.261051    0.133285    0.899419
     20          6           0        3.553911    1.280460    1.304023
     21          1           0        0.750114    2.759558    0.905485
     22          1           0       -1.842717    0.492028   -2.686298
     23          1           0       -3.695017   -0.174372   -1.181379
     24          1           0       -1.547436   -1.802632   -1.834625
     25          1           0       -2.127199    0.029386    1.053225
     26          1           0       -1.696165   -1.597610    0.652974
     27          1           0       -4.253586   -2.249152    2.813184
     28          1           0       -1.418294    2.565127   -1.937100
     29          1           0       -3.130273    1.913714    0.531072
     30          1           0       -2.747366    3.496640   -0.112169
     31          1           0       -3.763465    2.402212   -1.036975
     32          1           0        1.918909   -1.272156   -1.135819
     33          1           0        5.261928   -0.043055    1.265227
     34          1           0        4.017519    1.982673    1.981867
 ---------------------------------------------------------------------
 Rotational constants (GHZ):      0.4541272      0.1619645      0.1448646
 Standard basis: 6-31+G(d,p) (6D, 7F)
 There are   454 symmetry adapted basis functions of A   symmetry.
 Integral buffers will be    131072 words long.
 Raffenetti 2 integral format.
 Two-electron integral symmetry is turned on.
   454 basis functions,   762 primitive gaussians,   454 cartesian basis functions
    78 alpha electrons       78 beta electrons
       nuclear repulsion energy      1685.6014111636 Hartrees.
 NAtoms=   34 NActive=   34 NUniq=   34 SFac= 1.00D+00 NAtFMM=   50 NAOKFM=F Big=F
 Using the following non-standard input for PCM:
 radii=UA0
 --- end of non-standard input.
 ------------------------------------------------------------------------------
 United Atom Topological Model (UA0  parameters set).
  Nord Group  Hybr  Charge Alpha Radius          Bonded to
    1   OH    *     0.00   1.10  1.850   C2   [s]
    2   C     *     0.00   1.10  1.925   O1   [s]  C3   [s]  C20  [s]
    3   C     *     0.00   1.10  1.925   C2   [s]  C4   [s]  C16  [s]
    4   C     *     0.00   1.10  1.925   C3   [s]  N5   [d]  O15  [s]
    5   N     *     0.00   1.10  1.830   C4   [d]  C6   [s]
    6   CH    *     0.00   1.10  2.125   N5   [s]  C7   [s]  C13  [s]
    7   CH    *     0.00   1.10  2.125   C6   [s]  O8   [s]  C9   [s]
    8   OH    *     0.00   1.10  1.850   C7   [s]
    9   CH2   *     0.00   1.10  2.325   C7   [s]  C10  [s]
   10   C     *     0.00   1.10  1.925   C9   [s]  O11  [s]  O12  [d]
   11   OH    *     0.00   1.10  1.850   C10  [s]
   12   O     *     0.00   1.10  1.750   C10  [d]
   13   CH    *     0.00   1.10  2.125   C6   [s]  C14  [s]  O15  [s]
   14   CH3   *     0.00   1.10  2.525   C13  [s]
   15   O     *     0.00   1.10  1.750   C4   [s]  C13  [s]
   16   CH    *     0.00   1.10  2.125   C3   [s]  C17  [s]
   17   C     *     0.00   1.10  1.925   C16  [s] Cl18  [s]  C19  [s]
   18  Cl     *     0.00   1.10  1.973   C17  [s]
   19   CH    *     0.00   1.10  2.125   C17  [s]  C20  [s]
   20   CH    *     0.00   1.10  2.125   C2   [s]  C19  [s]
 ------------------------------------------------------------------------------
 Polarizable Continuum Model (PCM)
 =================================
 Model                : PCM.
 Atomic radii         : UA0 (Simple United Atom Topological Model).
 Polarization charges : Total charges.
 Charge compensation  : None.
 Solution method      : Matrix inversion.
 Cavity type          : Scaled VdW (van der Waals Surface) (Alpha=1.100).
 Cavity algorithm     : GePol (No added spheres)
                        Default sphere list used, NSphG=   20.
                        Lebedev-Laikov grids with approx.  5.0 points / Ang**2.
                        Smoothing algorithm: Karplus/York (Gamma=1.0000).
                        Polarization charges: spherical gaussians, with
                                              point-specific exponents (IZeta= 3).
                        Self-potential: point-specific (ISelfS= 7).
                        Self-field    : sphere-specific E.n sum rule (ISelfD= 2).
 1st derivatives      : Analytical E(r).r(x)/FMM algorithm (CHGder, D1EAlg=3).
                        Cavity 1st derivative terms included.
 Solvent              : Methanol, Eps=  32.613000 Eps(inf)=   1.765709
 ------------------------------------------------------------------------------
 Spheres list:
 ISph  on   Nord    Re0     Alpha      Xe            Ye            Ze
    1   O      1    1.850   1.100      1.621476      2.654153      1.268831
    2   C      2    1.925   1.100      2.247594      1.519237      0.832246
    3   C      3    1.925   1.100      1.636062      0.594587     -0.060364
    4   C      4    1.925   1.100      0.257550      0.794855     -0.587136
    5   N      5    1.830   1.100     -0.326713     -0.026270     -1.359455
    6   C      6    2.125   1.100     -1.662753      0.453857     -1.609274
    7   C      7    2.125   1.100     -2.683695     -0.535719     -0.987335
    8   O      8    1.850   1.100     -2.489058     -1.734725     -1.715025
    9   C      9    2.325   1.100     -2.480642     -0.851208      0.521426
   10   C     10    1.925   1.100     -3.747010     -1.303803      1.253596
   11   O     11    1.850   1.100     -3.450635     -1.996609      2.384354
   12   O     12    1.750   1.100     -4.889497     -1.028087      0.899409
   13   C     13    2.125   1.100     -1.642298      1.905456     -1.096252
   14   C     14    2.525   1.100     -2.891527      2.450963     -0.384225
   15   O     15    1.750   1.100     -0.495558      1.894475     -0.271600
   16   C     16    2.125   1.100      2.359338     -0.554708     -0.458741
   17   C     17    1.925   1.100      3.662753     -0.784040      0.017616
   18  Cl     18    1.973   1.100      4.527306     -2.191262     -0.480014
   19   C     19    2.125   1.100      4.261051      0.133285      0.899419
   20   C     20    2.125   1.100      3.553911      1.280460      1.304023
 ------------------------------------------------------------------------------
 One-electron integrals computed using PRISM.
 NBasis=   454 RedAO= T  NBF=   454
 NBsUse=   453 1.00D-06 NBFU=   453
 Harris functional with IExCor= 1009 diagonalized for initial guess.
 ExpMin= 4.38D-02 ExpMax= 2.52D+04 ExpMxC= 3.78D+03 IAcc=3 IRadAn=         5 AccDes= 0.00D+00
 HarFok:  IExCor= 1009 AccDes= 0.00D+00 IRadAn=         5 IDoV= 1
 ScaDFX=  1.000000  1.000000  1.000000  1.000000
 FoFCou: FMM=F IPFlag=           0 FMFlag=      100000 FMFlg1=           0
         NFxFlg=           0 DoJE=T BraDBF=F KetDBF=T FulRan=T
         Omega=  0.000000  0.000000  1.000000  0.000000  0.000000 ICntrl=     500 IOpCl=  0
         NMat0=    1 NMatS0=    1 NMatT0=    0 NMatD0=    1 NMtDS0=    0 NMtDT0=    0
         I1Cent=           4 NGrid=           0.
 Petite list used in FoFCou.
 Initial guess orbital symmetries:
       Occupied  (A) (A) (A) (A) (A) (A) (A) (A) (A) (A) (A) (A)
                 (A) (A) (A) (A) (A) (A) (A) (A) (A) (A) (A) (A)
                 (A) (A) (A) (A) (A) (A) (A) (A) (A) (A) (A) (A)
                 (A) (A) (A) (A) (A) (A) (A) (A) (A) (A) (A) (A)
                 (A) (A) (A) (A) (A) (A) (A) (A) (A) (A) (A) (A)
                 (A) (A) (A) (A) (A) (A) (A) (A) (A) (A) (A) (A)
                 (A) (A) (A) (A) (A) (A)
       Virtual   (A) (A) (A) (A) (A) (A) (A) (A) (A) (A) (A) (A)
                 (A) (A) (A) (A) (A) (A) (A) (A) (A) (A) (A) (A)
                 (A) (A) (A) (A) (A) (A) (A) (A) (A) (A) (A) (A)
                 (A) (A) (A) (A) (A) (A) (A) (A) (A) (A) (A) (A)
                 (A) (A) (A) (A) (A) (A) (A) (A) (A) (A) (A) (A)
                 (A) (A) (A) (A) (A) (A) (A) (A) (A) (A) (A) (A)
                 (A) (A) (A) (A) (A) (A) (A) (A) (A) (A) (A) (A)
                 (A) (A) (A) (A) (A) (A) (A) (A) (A) (A) (A) (A)
                 (A) (A) (A) (A) (A) (A) (A) (A) (A) (A) (A) (A)
                 (A) (A) (A) (A) (A) (A) (A) (A) (A) (A) (A) (A)
                 (A) (A) (A) (A) (A) (A) (A) (A) (A) (A) (A) (A)
                 (A) (A) (A) (A) (A) (A) (A) (A) (A) (A) (A) (A)
                 (A) (A) (A) (A) (A) (A) (A) (A) (A) (A) (A) (A)
                 (A) (A) (A) (A) (A) (A) (A) (A) (A) (A) (A) (A)
                 (A) (A) (A) (A) (A) (A) (A) (A) (A) (A) (A) (A)
                 (A) (A) (A) (A) (A) (A) (A) (A) (A) (A) (A) (A)
                 (A) (A) (A) (A) (A) (A) (A) (A) (A) (A) (A) (A)
                 (A) (A) (A) (A) (A) (A) (A) (A) (A) (A) (A) (A)
                 (A) (A) (A) (A) (A) (A) (A) (A) (A) (A) (A) (A)
                 (A) (A) (A) (A) (A) (A) (A) (A) (A) (A) (A) (A)
                 (A) (A) (A) (A) (A) (A) (A) (A) (A) (A) (A) (A)
                 (A) (A) (A) (A) (A) (A) (A) (A) (A) (A) (A) (A)
                 (A) (A) (A) (A) (A) (A) (A) (A) (A) (A) (A) (A)
                 (A) (A) (A) (A) (A) (A) (A) (A) (A) (A) (A) (A)
                 (A) (A) (A) (A) (A) (A) (A) (A) (A) (A) (A) (A)
                 (A) (A) (A) (A) (A) (A) (A) (A) (A) (A) (A) (A)
                 (A) (A) (A) (A) (A) (A) (A) (A) (A) (A) (A) (A)
                 (A) (A) (A) (A) (A) (A) (A) (A) (A) (A) (A) (A)
                 (A) (A) (A) (A) (A) (A) (A) (A) (A) (A) (A) (A)
                 (A) (A) (A) (A) (A) (A) (A) (A) (A) (A) (A) (A)
                 (A) (A) (A) (A) (A) (A) (A) (A) (A) (A) (A) (A)
                 (A) (A) (A)
 The electronic state of the initial guess is 1-A.
 Requested convergence on RMS density matrix=1.00D-08 within 128 cycles.
 Requested convergence on MAX density matrix=1.00D-06.
 Requested convergence on             energy=1.00D-06.
 No special actions if energy rises.
 Error on total polarization charges =  0.01510
 SCF Done:  E(RM062X) =  -1394.55434656     A.U. after   16 cycles
             Convg  =    0.4296D-08             -V/T =  2.0067

 **********************************************************************

            Population analysis using the SCF density.

 **********************************************************************

 Orbital symmetries:
       Occupied  (A) (A) (A) (A) (A) (A) (A) (A) (A) (A) (A) (A)
                 (A) (A) (A) (A) (A) (A) (A) (A) (A) (A) (A) (A)
                 (A) (A) (A) (A) (A) (A) (A) (A) (A) (A) (A) (A)
                 (A) (A) (A) (A) (A) (A) (A) (A) (A) (A) (A) (A)
                 (A) (A) (A) (A) (A) (A) (A) (A) (A) (A) (A) (A)
                 (A) (A) (A) (A) (A) (A) (A) (A) (A) (A) (A) (A)
                 (A) (A) (A) (A) (A) (A)
       Virtual   (A) (A) (A) (A) (A) (A) (A) (A) (A) (A) (A) (A)
                 (A) (A) (A) (A) (A) (A) (A) (A) (A) (A) (A) (A)
                 (A) (A) (A) (A) (A) (A) (A) (A) (A) (A) (A) (A)
                 (A) (A) (A) (A) (A) (A) (A) (A) (A) (A) (A) (A)
                 (A) (A) (A) (A) (A) (A) (A) (A) (A) (A) (A) (A)
                 (A) (A) (A) (A) (A) (A) (A) (A) (A) (A) (A) (A)
                 (A) (A) (A) (A) (A) (A) (A) (A) (A) (A) (A) (A)
                 (A) (A) (A) (A) (A) (A) (A) (A) (A) (A) (A) (A)
                 (A) (A) (A) (A) (A) (A) (A) (A) (A) (A) (A) (A)
                 (A) (A) (A) (A) (A) (A) (A) (A) (A) (A) (A) (A)
                 (A) (A) (A) (A) (A) (A) (A) (A) (A) (A) (A) (A)
                 (A) (A) (A) (A) (A) (A) (A) (A) (A) (A) (A) (A)
                 (A) (A) (A) (A) (A) (A) (A) (A) (A) (A) (A) (A)
                 (A) (A) (A) (A) (A) (A) (A) (A) (A) (A) (A) (A)
                 (A) (A) (A) (A) (A) (A) (A) (A) (A) (A) (A) (A)
                 (A) (A) (A) (A) (A) (A) (A) (A) (A) (A) (A) (A)
                 (A) (A) (A) (A) (A) (A) (A) (A) (A) (A) (A) (A)
                 (A) (A) (A) (A) (A) (A) (A) (A) (A) (A) (A) (A)
                 (A) (A) (A) (A) (A) (A) (A) (A) (A) (A) (A) (A)
                 (A) (A) (A) (A) (A) (A) (A) (A) (A) (A) (A) (A)
                 (A) (A) (A) (A) (A) (A) (A) (A) (A) (A) (A) (A)
                 (A) (A) (A) (A) (A) (A) (A) (A) (A) (A) (A) (A)
                 (A) (A) (A) (A) (A) (A) (A) (A) (A) (A) (A) (A)
                 (A) (A) (A) (A) (A) (A) (A) (A) (A) (A) (A) (A)
                 (A) (A) (A) (A) (A) (A) (A) (A) (A) (A) (A) (A)
                 (A) (A) (A) (A) (A) (A) (A) (A) (A) (A) (A) (A)
                 (A) (A) (A) (A) (A) (A) (A) (A) (A) (A) (A) (A)
                 (A) (A) (A) (A) (A) (A) (A) (A) (A) (A) (A) (A)
                 (A) (A) (A) (A) (A) (A) (A) (A) (A) (A) (A) (A)
                 (A) (A) (A) (A) (A) (A) (A) (A) (A) (A) (A) (A)
                 (A) (A) (A) (A) (A) (A) (A) (A) (A) (A) (A) (A)
                 (A) (A) (A)
 The electronic state is 1-A.
 Alpha  occ. eigenvalues -- -102.68350 -19.70844 -19.70186 -19.68534 -19.65857
 Alpha  occ. eigenvalues --  -19.64860 -14.76803 -10.71158 -10.67716 -10.64963
 Alpha  occ. eigenvalues --  -10.62786 -10.62583 -10.61857 -10.60073 -10.59383
 Alpha  occ. eigenvalues --  -10.58945 -10.58669 -10.57633 -10.57395 -10.55698
 Alpha  occ. eigenvalues --   -9.83030  -7.55433  -7.54771  -7.54760  -1.25120
 Alpha  occ. eigenvalues --   -1.24251  -1.19831  -1.16374  -1.15095  -1.04388
 Alpha  occ. eigenvalues --   -1.00897  -0.95438  -0.92228  -0.88290  -0.87084
 Alpha  occ. eigenvalues --   -0.83774  -0.81283  -0.77721  -0.73856  -0.71663
 Alpha  occ. eigenvalues --   -0.70394  -0.68871  -0.67441  -0.64333  -0.61659
 Alpha  occ. eigenvalues --   -0.60361  -0.59414  -0.58527  -0.57936  -0.56000
 Alpha  occ. eigenvalues --   -0.55399  -0.54674  -0.53503  -0.53487  -0.51744
 Alpha  occ. eigenvalues --   -0.51222  -0.50626  -0.49329  -0.48490  -0.48068
 Alpha  occ. eigenvalues --   -0.47618  -0.47286  -0.46363  -0.45849  -0.45332
 Alpha  occ. eigenvalues --   -0.44565  -0.43912  -0.42329  -0.40748  -0.40323
 Alpha  occ. eigenvalues --   -0.39163  -0.38911  -0.37263  -0.36829  -0.36139
 Alpha  occ. eigenvalues --   -0.34497  -0.31394  -0.28801
 Alpha virt. eigenvalues --   -0.03644   0.00532   0.00611   0.01703   0.02018
 Alpha virt. eigenvalues --    0.02472   0.02993   0.03217   0.03440   0.04071
 Alpha virt. eigenvalues --    0.04636   0.04846   0.05411   0.05649   0.06262
 Alpha virt. eigenvalues --    0.06438   0.06899   0.07230   0.07870   0.08273
 Alpha virt. eigenvalues --    0.08735   0.09057   0.09133   0.09506   0.10376
 Alpha virt. eigenvalues --    0.10447   0.11082   0.11258   0.11635   0.12346
 Alpha virt. eigenvalues --    0.13227   0.13359   0.13917   0.14578   0.14932
 Alpha virt. eigenvalues --    0.15150   0.15486   0.15784   0.16072   0.16435
 Alpha virt. eigenvalues --    0.16865   0.17200   0.17670   0.18023   0.18384
 Alpha virt. eigenvalues --    0.18734   0.18904   0.19667   0.19810   0.19947
 Alpha virt. eigenvalues --    0.20678   0.20795   0.21002   0.21469   0.21849
 Alpha virt. eigenvalues --    0.22046   0.22120   0.22615   0.22967   0.23328
 Alpha virt. eigenvalues --    0.23832   0.24326   0.24597   0.24833   0.25517
 Alpha virt. eigenvalues --    0.25802   0.26433   0.26546   0.26901   0.27415
 Alpha virt. eigenvalues --    0.28005   0.28233   0.28432   0.28700   0.29352
 Alpha virt. eigenvalues --    0.29707   0.30457   0.30640   0.30807   0.31171
 Alpha virt. eigenvalues --    0.31492   0.31855   0.32206   0.32323   0.33440
 Alpha virt. eigenvalues --    0.33655   0.34038   0.34407   0.35005   0.35512
 Alpha virt. eigenvalues --    0.35615   0.36092   0.36414   0.37683   0.38101
 Alpha virt. eigenvalues --    0.38425   0.39197   0.39521   0.39810   0.40904
 Alpha virt. eigenvalues --    0.41577   0.41744   0.42363   0.42756   0.43573
 Alpha virt. eigenvalues --    0.44693   0.45475   0.45702   0.46573   0.47661
 Alpha virt. eigenvalues --    0.48497   0.48866   0.50574   0.51573   0.53992
 Alpha virt. eigenvalues --    0.55779   0.57386   0.59510   0.61325   0.64603
 Alpha virt. eigenvalues --    0.67403   0.68484   0.69644   0.70463   0.71066
 Alpha virt. eigenvalues --    0.71850   0.72164   0.72280   0.73612   0.74305
 Alpha virt. eigenvalues --    0.74848   0.75396   0.75439   0.77896   0.78062
 Alpha virt. eigenvalues --    0.80261   0.80583   0.81164   0.81545   0.81944
 Alpha virt. eigenvalues --    0.83269   0.84090   0.84525   0.86493   0.86512
 Alpha virt. eigenvalues --    0.87115   0.88155   0.89754   0.90877   0.91718
 Alpha virt. eigenvalues --    0.92057   0.93228   0.94723   0.95741   0.97409
 Alpha virt. eigenvalues --    0.97753   0.99211   0.99286   1.01226   1.02557
 Alpha virt. eigenvalues --    1.03307   1.04319   1.05132   1.05750   1.06567
 Alpha virt. eigenvalues --    1.08002   1.08907   1.10214   1.11276   1.12491
 Alpha virt. eigenvalues --    1.13146   1.13567   1.15161   1.16614   1.17509
 Alpha virt. eigenvalues --    1.17955   1.18382   1.19614   1.21656   1.21913
 Alpha virt. eigenvalues --    1.23026   1.23385   1.24597   1.24826   1.25678
 Alpha virt. eigenvalues --    1.26438   1.26946   1.27265   1.29205   1.29226
 Alpha virt. eigenvalues --    1.29617   1.31594   1.32731   1.34031   1.35629
 Alpha virt. eigenvalues --    1.36152   1.37250   1.38393   1.38786   1.39829
 Alpha virt. eigenvalues --    1.40530   1.40581   1.41592   1.42665   1.43561
 Alpha virt. eigenvalues --    1.43887   1.44168   1.44481   1.45229   1.46041
 Alpha virt. eigenvalues --    1.47371   1.47838   1.49756   1.51773   1.53085
 Alpha virt. eigenvalues --    1.54621   1.55928   1.57644   1.58250   1.60186
 Alpha virt. eigenvalues --    1.63062   1.63167   1.63550   1.64568   1.65703
 Alpha virt. eigenvalues --    1.66930   1.68161   1.68760   1.70669   1.74479
 Alpha virt. eigenvalues --    1.76388   1.77025   1.78507   1.79558   1.80983
 Alpha virt. eigenvalues --    1.82077   1.83410   1.84533   1.85062   1.86499
 Alpha virt. eigenvalues --    1.87246   1.89189   1.90630   1.91790   1.92179
 Alpha virt. eigenvalues --    1.93415   1.95018   1.96162   1.97046   1.97744
 Alpha virt. eigenvalues --    1.98715   2.01783   2.02366   2.03532   2.04163
 Alpha virt. eigenvalues --    2.04942   2.05457   2.06693   2.08457   2.09301
 Alpha virt. eigenvalues --    2.10051   2.10698   2.11844   2.15269   2.16017
 Alpha virt. eigenvalues --    2.17280   2.18227   2.18946   2.20383   2.21801
 Alpha virt. eigenvalues --    2.22447   2.24070   2.25724   2.27130   2.28707
 Alpha virt. eigenvalues --    2.30129   2.31115   2.34753   2.36217   2.37226
 Alpha virt. eigenvalues --    2.38404   2.40602   2.41391   2.41637   2.42622
 Alpha virt. eigenvalues --    2.43043   2.44010   2.46714   2.47183   2.50544
 Alpha virt. eigenvalues --    2.51011   2.52311   2.53614   2.54422   2.56109
 Alpha virt. eigenvalues --    2.56821   2.57698   2.58162   2.58689   2.60002
 Alpha virt. eigenvalues --    2.60885   2.62104   2.64019   2.65449   2.67239
 Alpha virt. eigenvalues --    2.67983   2.69168   2.69624   2.71493   2.72361
 Alpha virt. eigenvalues --    2.73492   2.74104   2.75072   2.75180   2.76187
 Alpha virt. eigenvalues --    2.77303   2.78326   2.80189   2.82255   2.83199
 Alpha virt. eigenvalues --    2.84447   2.84653   2.85970   2.88291   2.91518
 Alpha virt. eigenvalues --    2.93447   2.96632   2.97767   3.01051   3.02175
 Alpha virt. eigenvalues --    3.04152   3.06407   3.06655   3.08902   3.12730
 Alpha virt. eigenvalues --    3.13964   3.16290   3.19029   3.23205   3.26731
 Alpha virt. eigenvalues --    3.27347   3.32586   3.36687   3.37994   3.40439
 Alpha virt. eigenvalues --    3.44291   3.45423   3.47178   3.48345   3.51764
 Alpha virt. eigenvalues --    3.53386   3.57065   3.64271   3.66664   3.76464
 Alpha virt. eigenvalues --    4.25540   4.27878   4.30377   4.31710   4.34750
 Alpha virt. eigenvalues --    4.35727   4.37284   4.40201   4.46322   4.50033
 Alpha virt. eigenvalues --    4.53556   4.53831   4.57744   4.61648   4.67296
 Alpha virt. eigenvalues --    4.74097   4.76288   4.86237   4.89124   4.95840
          Condensed to atoms (all electrons):
              1          2          3          4          5          6
     1  O    8.416890   0.394652   0.097774  -0.021068   0.000572   0.007979
     2  C    0.394652  21.919968  -4.840795   1.729343  -0.395217   0.136245
     3  C    0.097774  -4.840795  13.396380  -0.649086  -0.368518  -0.252652
     4  C   -0.021068   1.729343  -0.649086   8.622522   0.196277  -0.152467
     5  N    0.000572  -0.395217  -0.368518   0.196277   7.283783  -0.179103
     6  C    0.007979   0.136245  -0.252652  -0.152467  -0.179103  11.387316
     7  C    0.001044   0.002378  -0.048279   0.166649  -0.049377  -2.357415
     8  O   -0.000001  -0.004277   0.011496   0.041171  -0.023073  -0.112456
     9  C   -0.006949  -0.143807  -0.061373  -0.319896   0.139684   1.064249
    10  C   -0.002561  -0.121939   0.005490  -0.367585   0.061932  -0.004362
    11  O   -0.000008  -0.000511   0.000855   0.000634   0.000635  -0.010936
    12  O    0.000001  -0.000297   0.000468   0.003125  -0.001705  -0.013515
    13  C   -0.027005   0.128935   0.182369  -0.590964   0.158805  -2.931857
    14  C    0.002657   0.118224   0.017029  -0.112336  -0.062849   0.175918
    15  O    0.020037  -0.267249  -0.099606   0.265720  -0.107148  -0.262576
    16  C    0.127517  -8.947111   0.927616  -3.309734   0.518893  -0.675464
    17  C   -0.013451   0.636724  -1.320527   0.784349   0.119081   0.189326
    18  Cl  -0.000326   0.004938  -0.015634   0.009685  -0.000599  -0.003557
    19  C    0.043581   0.823874   0.056294   0.132496  -0.009441   0.040055
    20  C   -0.669508  -4.810226  -0.945598  -0.892882   0.022040  -0.327222
    21  H    0.202928   0.102907  -0.193648   0.026827   0.002573  -0.009671
    22  H    0.000013   0.000620   0.006547   0.038458  -0.040514   0.349070
    23  H   -0.000001  -0.001745   0.001319  -0.015316   0.002404   0.020573
    24  H   -0.000002  -0.003067  -0.008161  -0.001516   0.031254  -0.064924
    25  H    0.000036   0.006812  -0.015726  -0.034962  -0.001240  -0.005526
    26  H    0.000017  -0.009429   0.004555   0.006611  -0.007836   0.052989
    27  H    0.000000  -0.000008   0.000009  -0.000004  -0.000005   0.001636
    28  H   -0.000003   0.005708  -0.012670   0.029169   0.006960  -0.011610
    29  H    0.000012   0.002451  -0.000877   0.001592  -0.001244  -0.066448
    30  H   -0.000056  -0.000683  -0.003059   0.004139  -0.000378   0.035674
    31  H   -0.000001   0.001301  -0.001815  -0.001815  -0.001849   0.034693
    32  H   -0.000417   0.072581   0.065532   0.050338   0.003427   0.001428
    33  H   -0.000402  -0.068044   0.006311  -0.007450   0.000068   0.000013
    34  H   -0.003412   0.032740   0.001620   0.000519   0.000041  -0.000070
              7          8          9         10         11         12
     1  O    0.001044  -0.000001  -0.006949  -0.002561  -0.000008   0.000001
     2  C    0.002378  -0.004277  -0.143807  -0.121939  -0.000511  -0.000297
     3  C   -0.048279   0.011496  -0.061373   0.005490   0.000855   0.000468
     4  C    0.166649   0.041171  -0.319896  -0.367585   0.000634   0.003125
     5  N   -0.049377  -0.023073   0.139684   0.061932   0.000635  -0.001705
     6  C   -2.357415  -0.112456   1.064249  -0.004362  -0.010936  -0.013515
     7  C    8.832287   0.377511  -1.458609  -0.000711   0.049157   0.077578
     8  O    0.377511   8.248605  -0.227385   0.016190  -0.002369   0.002165
     9  C   -1.458609  -0.227385   8.619151  -1.553439   0.014785  -0.168057
    10  C   -0.000711   0.016190  -1.553439   6.900085   0.008113   0.488664
    11  O    0.049157  -0.002369   0.014785   0.008113   8.329208  -0.129264
    12  O    0.077578   0.002165  -0.168057   0.488664  -0.129264   8.216784
    13  C    0.078946   0.010314  -0.187615  -0.034858   0.002924   0.012369
    14  C   -0.334395   0.001448  -0.055007  -0.027321  -0.001325  -0.010657
    15  O    0.241022  -0.005891  -0.040992   0.007752  -0.000006  -0.000027
    16  C    0.193208  -0.002855   0.075684   0.137629   0.001000   0.000025
    17  C    0.024886  -0.006308   0.006000  -0.016843  -0.000254   0.000006
    18  Cl   0.000928   0.000024  -0.000356   0.000222   0.000001   0.000000
    19  C    0.007861  -0.000409  -0.003797  -0.000839   0.000051   0.000006
    20  C    0.020858   0.000395  -0.018600   0.001031  -0.000094  -0.000088
    21  H    0.002192  -0.000003  -0.000845   0.000047   0.000001   0.000000
    22  H   -0.034068  -0.003334   0.009374  -0.001167   0.000011  -0.000094
    23  H    0.381387  -0.045009  -0.093030   0.032046   0.000963  -0.000803
    24  H    0.029837   0.260589  -0.033316   0.011897   0.000157  -0.000190
    25  H   -0.000601   0.009126   0.313716   0.037077   0.000320  -0.002246
    26  H   -0.051815  -0.007441   0.362613  -0.012845   0.004453   0.005241
    27  H   -0.002387   0.000033   0.023961  -0.006851   0.239978   0.003485
    28  H    0.043718  -0.000662  -0.006907   0.001444   0.000000   0.000005
    29  H    0.081946  -0.000591  -0.035077   0.014938  -0.000125  -0.000824
    30  H   -0.020560   0.000053   0.003676  -0.002083   0.000001   0.000053
    31  H   -0.024025  -0.000081   0.005570  -0.004404  -0.000005   0.000018
    32  H   -0.001517  -0.000103   0.002876   0.000536   0.000001   0.000000
    33  H   -0.000007   0.000000  -0.000009  -0.000001   0.000000   0.000000
    34  H    0.000006   0.000000   0.000023   0.000002   0.000000   0.000000
             13         14         15         16         17         18
     1  O   -0.027005   0.002657   0.020037   0.127517  -0.013451  -0.000326
     2  C    0.128935   0.118224  -0.267249  -8.947111   0.636724   0.004938
     3  C    0.182369   0.017029  -0.099606   0.927616  -1.320527  -0.015634
     4  C   -0.590964  -0.112336   0.265720  -3.309734   0.784349   0.009685
     5  N    0.158805  -0.062849  -0.107148   0.518893   0.119081  -0.000599
     6  C   -2.931857   0.175918  -0.262576  -0.675464   0.189326  -0.003557
     7  C    0.078946  -0.334395   0.241022   0.193208   0.024886   0.000928
     8  O    0.010314   0.001448  -0.005891  -0.002855  -0.006308   0.000024
     9  C   -0.187615  -0.055007  -0.040992   0.075684   0.006000  -0.000356
    10  C   -0.034858  -0.027321   0.007752   0.137629  -0.016843   0.000222
    11  O    0.002924  -0.001325  -0.000006   0.001000  -0.000254   0.000001
    12  O    0.012369  -0.010657  -0.000027   0.000025   0.000006   0.000000
    13  C    8.923604  -0.012729  -0.049966  -0.148080  -0.071077   0.001523
    14  C   -0.012729   5.776669  -0.139345  -0.078640  -0.013923  -0.000043
    15  O   -0.049966  -0.139345   8.616849   0.150975   0.052083  -0.000150
    16  C   -0.148080  -0.078640   0.150975  25.240017  -5.440708  -0.129385
    17  C   -0.071077  -0.013923   0.052083  -5.440708  10.047100  -0.100649
    18  Cl   0.001523  -0.000043  -0.000150  -0.129385  -0.100649  17.019060
    19  C   -0.034587  -0.000791  -0.005798  -2.899900   1.163099  -0.078411
    20  C    0.276937   0.026979   0.011635   0.652412  -0.201991   0.070741
    21  H    0.017745  -0.006859   0.030350  -0.048477   0.003489   0.000000
    22  H   -0.020786  -0.016719   0.013454  -0.001890  -0.002590   0.000007
    23  H   -0.027719   0.026166  -0.005700   0.000677  -0.000182   0.000000
    24  H    0.027486  -0.000175  -0.000960   0.006242   0.000479   0.000031
    25  H    0.008957  -0.012569   0.011756  -0.007268   0.000026   0.000012
    26  H   -0.024496   0.002324  -0.002797   0.018664  -0.002011  -0.000024
    27  H   -0.000090   0.000257  -0.000005   0.000022  -0.000001   0.000000
    28  H    0.331276  -0.057621  -0.045182   0.004518   0.000243   0.000003
    29  H   -0.003101   0.355467   0.006687   0.000208  -0.000238   0.000000
    30  H   -0.085627   0.441521  -0.008281   0.000462   0.000170   0.000000
    31  H   -0.103470   0.452210   0.006385  -0.000840  -0.000003   0.000000
    32  H    0.006023   0.000080   0.000200   0.055369   0.037104  -0.001854
    33  H   -0.000073  -0.000002   0.000001   0.160949   0.079633  -0.009576
    34  H    0.000249  -0.000013   0.000192  -0.006784   0.000501   0.000965
             19         20         21         22         23         24
     1  O    0.043581  -0.669508   0.202928   0.000013  -0.000001  -0.000002
     2  C    0.823874  -4.810226   0.102907   0.000620  -0.001745  -0.003067
     3  C    0.056294  -0.945598  -0.193648   0.006547   0.001319  -0.008161
     4  C    0.132496  -0.892882   0.026827   0.038458  -0.015316  -0.001516
     5  N   -0.009441   0.022040   0.002573  -0.040514   0.002404   0.031254
     6  C    0.040055  -0.327222  -0.009671   0.349070   0.020573  -0.064924
     7  C    0.007861   0.020858   0.002192  -0.034068   0.381387   0.029837
     8  O   -0.000409   0.000395  -0.000003  -0.003334  -0.045009   0.260589
     9  C   -0.003797  -0.018600  -0.000845   0.009374  -0.093030  -0.033316
    10  C   -0.000839   0.001031   0.000047  -0.001167   0.032046   0.011897
    11  O    0.000051  -0.000094   0.000001   0.000011   0.000963   0.000157
    12  O    0.000006  -0.000088   0.000000  -0.000094  -0.000803  -0.000190
    13  C   -0.034587   0.276937   0.017745  -0.020786  -0.027719   0.027486
    14  C   -0.000791   0.026979  -0.006859  -0.016719   0.026166  -0.000175
    15  O   -0.005798   0.011635   0.030350   0.013454  -0.005700  -0.000960
    16  C   -2.899900   0.652412  -0.048477  -0.001890   0.000677   0.006242
    17  C    1.163099  -0.201991   0.003489  -0.002590  -0.000182   0.000479
    18  Cl  -0.078411   0.070741   0.000000   0.000007   0.000000   0.000031
    19  C    7.168732  -0.253618  -0.002980  -0.000218  -0.000015  -0.000066
    20  C   -0.253618  12.256505   0.120444   0.001030  -0.000077  -0.000048
    21  H   -0.002980   0.120444   0.293024   0.000001   0.000000   0.000000
    22  H   -0.000218   0.001030   0.000001   0.511031  -0.005379  -0.003405
    23  H   -0.000015  -0.000077   0.000000  -0.005379   0.531367   0.005748
    24  H   -0.000066  -0.000048   0.000000  -0.003405   0.005748   0.331331
    25  H   -0.000288   0.005528   0.000029  -0.000031   0.001980  -0.000146
    26  H    0.000342  -0.003264  -0.000002  -0.000191   0.002477   0.001726
    27  H    0.000000  -0.000002   0.000000   0.000000  -0.000003   0.000000
    28  H    0.000125   0.001308   0.000078  -0.007996  -0.000055  -0.000006
    29  H    0.000052   0.000703   0.000040  -0.000019  -0.001578  -0.000001
    30  H   -0.000015  -0.000601  -0.000054  -0.000099   0.000101   0.000000
    31  H   -0.000002   0.000053  -0.000001   0.000263  -0.000310  -0.000005
    32  H    0.045270  -0.013167  -0.000005   0.000002   0.000000   0.000044
    33  H    0.175181  -0.006801   0.000002   0.000000   0.000000   0.000000
    34  H    0.001359   0.300970   0.000038   0.000000   0.000000   0.000000
             25         26         27         28         29         30
     1  O    0.000036   0.000017   0.000000  -0.000003   0.000012  -0.000056
     2  C    0.006812  -0.009429  -0.000008   0.005708   0.002451  -0.000683
     3  C   -0.015726   0.004555   0.000009  -0.012670  -0.000877  -0.003059
     4  C   -0.034962   0.006611  -0.000004   0.029169   0.001592   0.004139
     5  N   -0.001240  -0.007836  -0.000005   0.006960  -0.001244  -0.000378
     6  C   -0.005526   0.052989   0.001636  -0.011610  -0.066448   0.035674
     7  C   -0.000601  -0.051815  -0.002387   0.043718   0.081946  -0.020560
     8  O    0.009126  -0.007441   0.000033  -0.000662  -0.000591   0.000053
     9  C    0.313716   0.362613   0.023961  -0.006907  -0.035077   0.003676
    10  C    0.037077  -0.012845  -0.006851   0.001444   0.014938  -0.002083
    11  O    0.000320   0.004453   0.239978   0.000000  -0.000125   0.000001
    12  O   -0.002246   0.005241   0.003485   0.000005  -0.000824   0.000053
    13  C    0.008957  -0.024496  -0.000090   0.331276  -0.003101  -0.085627
    14  C   -0.012569   0.002324   0.000257  -0.057621   0.355467   0.441521
    15  O    0.011756  -0.002797  -0.000005  -0.045182   0.006687  -0.008281
    16  C   -0.007268   0.018664   0.000022   0.004518   0.000208   0.000462
    17  C    0.000026  -0.002011  -0.000001   0.000243  -0.000238   0.000170
    18  Cl   0.000012  -0.000024   0.000000   0.000003   0.000000   0.000000
    19  C   -0.000288   0.000342   0.000000   0.000125   0.000052  -0.000015
    20  C    0.005528  -0.003264  -0.000002   0.001308   0.000703  -0.000601
    21  H    0.000029  -0.000002   0.000000   0.000078   0.000040  -0.000054
    22  H   -0.000031  -0.000191   0.000000  -0.007996  -0.000019  -0.000099
    23  H    0.001980   0.002477  -0.000003  -0.000055  -0.001578   0.000101
    24  H   -0.000146   0.001726   0.000000  -0.000006  -0.000001   0.000000
    25  H    0.491807  -0.023408  -0.000188  -0.000003  -0.000827   0.000100
    26  H   -0.023408   0.465200  -0.000052   0.000005   0.000109   0.000000
    27  H   -0.000188  -0.000052   0.301866   0.000000   0.000000   0.000000
    28  H   -0.000003   0.000005   0.000000   0.529631   0.003839  -0.004321
    29  H   -0.000827   0.000109   0.000000   0.003839   0.520962  -0.026268
    30  H    0.000100   0.000000   0.000000  -0.004321  -0.026268   0.503280
    31  H   -0.000012  -0.000005   0.000000  -0.001503  -0.026464  -0.022318
    32  H    0.000001  -0.000013   0.000000   0.000000   0.000000   0.000000
    33  H    0.000000   0.000000   0.000000   0.000000   0.000000   0.000000
    34  H    0.000000   0.000000   0.000000   0.000000   0.000000   0.000000
             31         32         33         34
     1  O   -0.000001  -0.000417  -0.000402  -0.003412
     2  C    0.001301   0.072581  -0.068044   0.032740
     3  C   -0.001815   0.065532   0.006311   0.001620
     4  C   -0.001815   0.050338  -0.007450   0.000519
     5  N   -0.001849   0.003427   0.000068   0.000041
     6  C    0.034693   0.001428   0.000013  -0.000070
     7  C   -0.024025  -0.001517  -0.000007   0.000006
     8  O   -0.000081  -0.000103   0.000000   0.000000
     9  C    0.005570   0.002876  -0.000009   0.000023
    10  C   -0.004404   0.000536  -0.000001   0.000002
    11  O   -0.000005   0.000001   0.000000   0.000000
    12  O    0.000018   0.000000   0.000000   0.000000
    13  C   -0.103470   0.006023  -0.000073   0.000249
    14  C    0.452210   0.000080  -0.000002  -0.000013
    15  O    0.006385   0.000200   0.000001   0.000192
    16  C   -0.000840   0.055369   0.160949  -0.006784
    17  C   -0.000003   0.037104   0.079633   0.000501
    18  Cl   0.000000  -0.001854  -0.009576   0.000965
    19  C   -0.000002   0.045270   0.175181   0.001359
    20  C    0.000053  -0.013167  -0.006801   0.300970
    21  H   -0.000001  -0.000005   0.000002   0.000038
    22  H    0.000263   0.000002   0.000000   0.000000
    23  H   -0.000310   0.000000   0.000000   0.000000
    24  H   -0.000005   0.000044   0.000000   0.000000
    25  H   -0.000012   0.000001   0.000000   0.000000
    26  H   -0.000005  -0.000013   0.000000   0.000000
    27  H    0.000000   0.000000   0.000000   0.000000
    28  H   -0.001503   0.000000   0.000000   0.000000
    29  H   -0.026464   0.000000   0.000000   0.000000
    30  H   -0.022318   0.000000   0.000000   0.000000
    31  H    0.496722   0.000000   0.000000   0.000000
    32  H    0.000000   0.463875  -0.000129   0.000008
    33  H    0.000000  -0.000129   0.466856  -0.003682
    34  H    0.000000   0.000008  -0.003682   0.470695
 Mulliken atomic charges:
              1
     1  O   -0.570539
     2  C   -0.505998
     3  C    0.056358
     4  C    0.367459
     5  N   -0.298330
     6  C   -0.055332
     7  C   -0.229632
     8  O   -0.536871
     9  C   -0.226297
    10  C    0.432711
    11  O   -0.508349
    12  O   -0.482227
    13  C    0.185638
    14  C   -0.453630
    15  O   -0.393417
    16  C   -0.574950
    17  C    0.046456
    18  Cl   0.232425
    19  C   -0.367204
    20  C    0.374219
    21  H    0.459829
    22  H    0.208618
    23  H    0.189712
    24  H    0.409166
    25  H    0.217756
    26  H    0.218303
    27  H    0.438351
    28  H    0.190507
    29  H    0.174675
    30  H    0.185173
    31  H    0.191714
    32  H    0.212511
    33  H    0.207161
    34  H    0.204035
 Sum of Mulliken atomic charges =   0.00000
 Mulliken charges with hydrogens summed into heavy atoms:
              1
     1  O   -0.110709
     2  C   -0.505998
     3  C    0.056358
     4  C    0.367459
     5  N   -0.298330
     6  C    0.153286
     7  C   -0.039920
     8  O   -0.127705
     9  C    0.209762
    10  C    0.432711
    11  O   -0.069998
    12  O   -0.482227
    13  C    0.376145
    14  C    0.097932
    15  O   -0.393417
    16  C   -0.362439
    17  C    0.046456
    18  Cl   0.232425
    19  C   -0.160044
    20  C    0.578254
 Sum of Mulliken charges with hydrogens summed into heavy atoms =   0.00000
 Electronic spatial extent (au):  <R**2>=           7513.0969
 Charge=              0.0000 electrons
 Dipole moment (field-independent basis, Debye):
    X=              0.4844    Y=              3.6989    Z=              1.3518  Tot=              3.9679
 Quadrupole moment (field-independent basis, Debye-Ang):
   XX=           -135.5281   YY=           -123.9798   ZZ=           -120.1930
   XY=             -6.2389   XZ=             -2.4149   YZ=            -10.4706
 Traceless Quadrupole moment (field-independent basis, Debye-Ang):
   XX=             -8.9611   YY=              2.5872   ZZ=              6.3740
   XY=             -6.2389   XZ=             -2.4149   YZ=            -10.4706
 Octapole moment (field-independent basis, Debye-Ang**2):
  XXX=             87.1031  YYY=             -1.7993  ZZZ=             19.9326  XYY=            -41.4048
  XXY=             39.6238  XXZ=             69.1315  XZZ=            -35.6111  YZZ=             -4.8107
  YYZ=              4.9077  XYZ=             41.5357
 Hexadecapole moment (field-independent basis, Debye-Ang**3):
 XXXX=          -7239.9564 YYYY=          -1882.0663 ZZZZ=           -985.3255 XXXY=             69.6347
 XXXZ=              2.6066 YYYX=            -25.0002 YYYZ=            -64.5521 ZZZX=           -135.9764
 ZZZY=            -77.7806 XXYY=          -1432.2457 XXZZ=          -1144.7765 YYZZ=           -463.0665
 XXYZ=           -141.1340 YYXZ=            -98.3420 ZZXY=             54.1777
 N-N= 1.685601411164D+03 E-N=-6.643264355681D+03  KE= 1.385307554309D+03
 D1PCM: PCM CHGder 1st derivatives, ID1Alg=3 FixD1E=F DoIter=F DoCFld=F I1PDM=0.
 Calling FoFJK, ICntrl=      2127 FMM=F ISym2X=0 I1Cent= 0 IOpClX= 0 NMat=1 NMatS=1 NMatT=0.
 ***** Axes restored to original set *****
 -------------------------------------------------------------------
 Center     Atomic                   Forces (Hartrees/Bohr)
 Number     Number              X              Y              Z
 -------------------------------------------------------------------
      1        8          -0.019699238    0.014777538    0.024754797
      2        6           0.004695591   -0.001985922   -0.006110247
      3        6          -0.004431443   -0.009278582    0.005944735
      4        6           0.004119834    0.007255843   -0.006193082
      5        7          -0.004971270    0.018681305    0.007212119
      6        6           0.012184601   -0.016064335   -0.007259633
      7        6          -0.008706340    0.007213309    0.008620338
      8        8           0.025283075   -0.004046876   -0.011983090
      9        6           0.003481755   -0.003869512   -0.008271902
     10        6           0.004129442   -0.004462116   -0.009975419
     11        8          -0.039203653    0.005836865   -0.023651392
     12        8          -0.014961399    0.010647944    0.024325565
     13        6           0.017131579   -0.002674706   -0.016906983
     14        6          -0.007974031    0.003611985    0.006174226
     15        8          -0.021764935   -0.015581427    0.036637043
     16        6          -0.009250723   -0.006088771    0.011381729
     17        6           0.008917084   -0.025313719   -0.011391571
     18       17          -0.001162649    0.007944028    0.001523614
     19        6           0.009897447   -0.009898511   -0.012090146
     20        6           0.004971782    0.017347660   -0.005712257
     21        1           0.014326160   -0.001282049   -0.018080539
     22        1           0.005710633    0.004826578   -0.000845928
     23        1           0.003205283   -0.000328012    0.000197261
     24        1          -0.014992155    0.013787230    0.008662154
     25        1          -0.001818335   -0.007447029    0.002984510
     26        1           0.000515125    0.002805599   -0.000707954
     27        1           0.035420223   -0.008240195    0.002742653
     28        1          -0.003017975   -0.000348399   -0.002385218
     29        1           0.001858358    0.002589727    0.003227103
     30        1          -0.002676286   -0.000822815   -0.000245062
     31        1          -0.001179622    0.003269290   -0.002555688
     32        1           0.003271960    0.000494172   -0.003931463
     33        1          -0.002721189    0.000588422    0.003293752
     34        1          -0.000588689   -0.003944518    0.000615971
 -------------------------------------------------------------------
 Cartesian Forces:  Max     0.039203653 RMS     0.011698426

 GradGradGradGradGradGradGradGradGradGradGradGradGradGradGradGradGradGrad
 Berny optimization.
 Internal  Forces:  Max     0.036454233 RMS     0.007343810
 Search for a local minimum.
 Step number   1 out of a maximum of  192
 All quantities printed in internal units (Hartrees-Bohrs-Radians)
 Mixed Optimization -- RFO/linear search
 Second derivative matrix not updated -- first step.
 ITU=  0
     Eigenvalues ---    0.00230   0.00230   0.00265   0.00353   0.00689
     Eigenvalues ---    0.00829   0.00909   0.01480   0.01553   0.01684
     Eigenvalues ---    0.01843   0.01917   0.01943   0.01964   0.01980
     Eigenvalues ---    0.01999   0.02001   0.02005   0.02119   0.02236
     Eigenvalues ---    0.02375   0.03672   0.03743   0.03747   0.03991
     Eigenvalues ---    0.04188   0.04969   0.05068   0.05134   0.05214
     Eigenvalues ---    0.05518   0.05697   0.07966   0.07976   0.08481
     Eigenvalues ---    0.09723   0.13049   0.13754   0.16000   0.16000
     Eigenvalues ---    0.16000   0.16000   0.16000   0.16000   0.16000
     Eigenvalues ---    0.16000   0.16494   0.16846   0.17036   0.19191
     Eigenvalues ---    0.19844   0.21912   0.22438   0.23513   0.23767
     Eigenvalues ---    0.24601   0.24979   0.25000   0.25000   0.25000
     Eigenvalues ---    0.25000   0.27255   0.27482   0.27490   0.28706
     Eigenvalues ---    0.29312   0.33050   0.33280   0.34511   0.34588
     Eigenvalues ---    0.34660   0.34721   0.34779   0.34805   0.35063
     Eigenvalues ---    0.35075   0.35933   0.35953   0.35979   0.37478
     Eigenvalues ---    0.38684   0.40297   0.42138   0.42951   0.43070
     Eigenvalues ---    0.43863   0.44309   0.44555   0.47917   0.51340
     Eigenvalues ---    0.53184   0.56986   0.57317   0.58906   0.71455
     Eigenvalues ---    0.92138
 RFO step:  Lambda=-2.75228454D-02 EMin= 2.30000000D-03
 Linear search not attempted -- first point.
 Iteration  1 RMS(Cart)=  0.08465776 RMS(Int)=  0.00236142
 Iteration  2 RMS(Cart)=  0.00388747 RMS(Int)=  0.00035273
 Iteration  3 RMS(Cart)=  0.00001291 RMS(Int)=  0.00035268
 Iteration  4 RMS(Cart)=  0.00000001 RMS(Int)=  0.00035268
 Variable       Old X    -DE/DX   Delta X   Delta X   Delta X     New X
                                 (Linear)    (Quad)   (Total)
    R1        2.58462  -0.01408   0.00000  -0.02641  -0.02642   2.55820
    R2        1.79514   0.02005   0.00000   0.03425   0.03429   1.82943
    R3        2.68959  -0.00917   0.00000  -0.02255  -0.02262   2.66697
    R4        2.66314  -0.01304   0.00000  -0.02783  -0.02784   2.63530
    R5        2.81429  -0.01309   0.00000  -0.03781  -0.03785   2.77644
    R6        2.67429  -0.01611   0.00000  -0.03529  -0.03530   2.63898
    R7        2.39935   0.01101   0.00000   0.01391   0.01402   2.41337
    R8        2.58823  -0.00515   0.00000  -0.01013  -0.00999   2.57824
    R9        2.72405   0.01249   0.00000   0.03073   0.03069   2.75474
   R10        2.93266  -0.00663   0.00000  -0.02191  -0.02191   2.91075
   R11        2.90966   0.00729   0.00000   0.02385   0.02370   2.93335
   R12        2.06476   0.00152   0.00000   0.00408   0.00408   2.06884
[...]
 00406,-0.00000227,-0.00000165,-0.00002043,-0.00001417,-0.00000573,-0.0
 0013204,0.00017862,-0.00005886,-0.00045564,-0.00059787,0.00039621,0.00
 011087,-0.00001967,0.00001471,0.00005645,-0.00152630,-0.00172583,0.000
 15911,0.00018025,0.00000027,-0.00007674,0.00001163,-0.00001534,0.00354
 009,-0.00344177,-0.00100546,0.01619226,0.05382896,-0.00003536,0.000000
 85,0.00002888,-0.00000391,-0.00000378,-0.00002340,-0.00003355,0.000111
 15,0.00000819,-0.00007725,-0.00080910,0.00006084,0.00019546,0.00028718
 ,-0.00000210,-0.00059588,-0.00020162,-0.00015647,-0.00044190,0.0006403
 3,0.00048215,0.00025316,-0.00037038,-0.00019583,-0.00006034,-0.0010778
 3,-0.00059165,0.00014877,-0.00004406,0.00023077,-0.00010048,0.00001059
 ,-0.00019052,-0.00006296,-0.00000687,-0.00005628,0.00402029,0.00057764
 ,0.00092295,-0.13823554,-0.01489708,-0.18277664,-0.00078077,0.00125292
 ,0.00165825,-0.00001672,-0.00002211,0.00000688,-0.00000802,-0.00001410
 ,0.00001563,-0.00000195,0.00001521,0.00000767,-0.00000074,0.00001638,0
 .00000216,0.00000851,-0.00000273,0.00000651,0.00005842,0.00004570,-0.0
 0002868,0.00005897,0.00000695,0.00000853,0.00038323,0.00024015,-0.0004
 7674,-0.00010497,-0.00003821,0.00003336,-0.00012582,-0.00196003,-0.000
 86956,-0.00004757,-0.00010487,-0.00007512,0.00002036,0.00000794,0.0000
 0552,0.00081049,-0.00048762,0.00114153,0.15147771,0.01934463,0.1953600
 8,0.00000058,-0.00006700,-0.00003316,-0.00002037,0.00010833,0.00004425
 ,-0.00008318,-0.00010607,0.00002098,0.00044262,0.00061241,-0.00055035,
 -0.00025755,0.00175799,0.00086789,-0.00364676,0.00109612,0.00111024,-0
 .00101858,0.00037179,0.00023198,0.00041297,-0.00027292,-0.00002586,0.0
 0017181,-0.00000118,-0.00012587,0.00027602,0.00005548,0.00026540,-0.00
 010086,-0.00001186,-0.00013919,-0.00012188,-0.00004317,-0.00005703,0.0
 1136887,0.02425663,-0.00293955,-0.10979716,-0.11698028,0.01341169,0.00
 138738,-0.00160566,-0.00109822,0.00001407,0.00000096,-0.00000730,-0.00
 002783,-0.00004867,0.00000846,-0.00000006,0.00001367,0.00000512,-0.000
 00837,0.00002926,0.00001314,0.00001384,-0.00001902,-0.00000277,-0.0000
 2698,0.00000477,0.00004857,0.00011076,0.00024095,-0.00010882,0.0003938
 8,-0.00020956,-0.00035332,-0.00010143,-0.00007408,-0.00000054,-0.00013
 552,-0.00007786,0.00019181,-0.00006955,-0.00008623,-0.00001476,0.00002
 918,0.00000216,0.00000865,0.00117321,-0.00070663,-0.00019340,-0.009862
 49,-0.01871801,0.00432090,0.11639790,0.00000788,0.00014555,0.00003553,
 0.00001410,-0.00020942,-0.00006402,0.00008535,0.00011765,-0.00005825,-
 0.00041122,-0.00128904,0.00041135,0.00049111,-0.00109915,-0.00097623,0
 .00393985,0.00081131,-0.00015070,0.00072107,0.00049842,0.00005111,-0.0
 0025486,-0.00028750,-0.00004332,-0.00009388,-0.00001289,0.00000939,0.0
 0023081,-0.00000357,0.00003326,-0.00011570,-0.00001419,-0.00008382,-0.
 00012382,0.00001959,-0.00001491,-0.01206882,-0.02386381,0.00295935,-0.
 11463662,-0.25931010,0.02674924,-0.00071930,0.00221217,0.00051711,-0.0
 0001130,0.00002043,-0.00000022,0.00004752,0.00007498,-0.00002357,0.000
 00171,-0.00002719,-0.00001086,0.00001260,-0.00005575,-0.00002401,-0.00
 001886,0.00003647,0.00001288,0.00008182,-0.00008107,-0.00008313,-0.000
 11007,-0.00051443,0.00008020,0.00008954,0.00004950,-0.00000198,0.00000
 470,0.00010614,0.00004564,-0.00000070,-0.00004278,0.00006715,-0.000012
 18,-0.00000811,-0.00000074,0.00001565,-0.00000567,0.00000011,-0.000022
 46,0.00107239,0.00004260,-0.00019230,-0.00083382,0.00005232,0.12210341
 ,0.28113855,-0.00005484,0.00001707,0.00003707,0.00001079,-0.00004467,-
 0.00002611,-0.00001435,0.00007871,0.00001992,-0.00009766,-0.00042568,-
 0.00001424,0.00029526,0.00007557,-0.00011305,0.00014912,-0.00034990,0.
 00103405,0.00004367,0.00016239,-0.00017535,0.00008372,-0.00006566,0.00
 003628,0.00003126,-0.00000436,-0.00014611,0.00030519,0.00001806,0.0001
 5382,-0.00010307,-0.00000399,-0.00011482,-0.00011531,-0.00001039,-0.00
 000755,-0.00014416,-0.00308633,-0.00180543,0.01246946,0.02746104,-0.05
 007334,-0.00098582,0.00017663,0.00093629,-0.00001304,-0.00001997,0.000
 00562,-0.00000549,-0.00001374,0.00000581,-0.00000231,0.00001780,0.0000
 0763,-0.00000175,0.00001144,0.00000428,-0.00000221,0.00000376,0.000004
 29,0.00014205,0.00004147,-0.00006655,0.00003804,-0.00032980,-0.0000615
 6,-0.00006198,0.00000051,-0.00011604,-0.00003307,0.00000085,0.00000872
 ,-0.00011820,-0.00008203,0.00023921,-0.00008981,-0.00010941,0.00004999
 ,0.00002326,0.00000213,0.00000414,0.00020788,0.00046378,-0.00011482,-0
 .00991603,-0.02097614,0.00312668,-0.01480443,-0.02942829,0.04916762,-0
 .00008800,-0.00005451,0.00008012,0.00003710,0.00000977,-0.00004228,0.0
 0009224,0.00050990,0.00002832,-0.00075287,-0.00192717,0.00081990,0.000
 08201,0.00045454,-0.00039975,0.00035901,-0.00017486,0.00003956,0.00009
 323,0.00005906,-0.00041543,0.00003398,0.00010885,0.00007062,0.00003232
 ,-0.00010989,-0.00029736,0.00019499,-0.00004253,-0.00001615,-0.0000417
 1,0.00000824,-0.00000603,-0.00006353,0.00005767,0.00005678,-0.00767486
 ,-0.00429695,0.01873277,-0.09823356,0.00007368,0.10625267,-0.00307826,
 0.00546798,0.00142972,-0.00009149,-0.00007184,0.00008725,-0.00002243,-
 0.00002666,0.00002547,-0.00001038,0.00005477,0.00002914,-0.00000092,0.
 00004912,0.00001565,-0.00000083,-0.00001767,-0.00000643,0.00018539,0.0
 0015627,-0.00014244,0.00004725,0.00020007,-0.00002223,-0.00000606,-0.0
 0011355,0.00002599,-0.00000755,-0.00001761,-0.00002460,-0.00009547,-0.
 00001549,0.00021132,-0.00006998,-0.00014655,0.00000019,0.00000574,0.00
 000483,-0.00000321,0.00031721,-0.00059305,-0.00056695,0.01182517,0.000
 17208,-0.02101829,-0.00691365,0.00094242,0.01276211,0.10384758,0.00009
 423,0.00005592,-0.00010784,-0.00005244,0.00001525,0.00005973,-0.000100
 01,-0.00055978,0.00000212,0.00105503,0.00201099,-0.00099107,-0.0002786
 9,-0.00005818,0.00049557,-0.00052234,0.00025096,0.00002647,0.00016419,
 -0.00030360,-0.00039505,-0.00010597,0.00021394,0.00014581,-0.00002122,
 0.00005501,-0.00004547,0.00005006,-0.00004687,-0.00004406,0.00000585,0
 .00001084,0.00002191,-0.00001105,0.00003035,0.00005315,0.00727723,0.00
 205186,-0.02313538,-0.00054853,-0.04640575,0.00500199,0.00501633,-0.00
 537918,-0.00191056,0.00008647,0.00006391,-0.00010361,0.00001367,0.0000
 0747,-0.00002469,0.00001082,-0.00004764,-0.00002561,-0.00000165,-0.000
 03819,-0.00000753,0.00000301,0.00001657,0.00000507,-0.00013374,-0.0002
 0914,0.00011354,-0.00002141,-0.00017497,0.00013026,-0.00056363,-0.0004
 2398,-0.00015480,0.00006193,0.00003776,-0.00002323,0.00003533,-0.00004
 612,0.00009770,-0.00001731,-0.00005381,0.00005471,-0.00000242,0.000003
 87,-0.00000288,-0.00035620,0.00079132,0.00048474,0.00117010,-0.0014544
 3,-0.00256899,-0.01159457,0.00131500,0.02642015,-0.00071710,0.04827323
 ,0.00001404,-0.00001243,-0.00001805,-0.00000477,0.00001813,0.00001849,
 -0.00007429,-0.00000914,-0.00000006,0.00002876,0.00072704,0.00042055,-
 0.00004257,-0.00027274,-0.00003825,0.00034516,0.00011999,0.00023190,0.
 00043396,-0.00025401,-0.00049135,-0.00017644,0.00022847,0.00018936,-0.
 00003376,0.00013713,-0.00023527,0.00021871,-0.00008656,-0.00003428,-0.
 00004170,0.00001332,-0.00000213,-0.00007215,0.00005672,0.00008130,-0.0
 0045707,-0.00013380,-0.00214554,0.10745874,0.00367809,-0.27125654,0.00
 003794,-0.00034671,0.00143524,-0.00000723,0.00001527,-0.00001167,0.000
 01188,0.00000479,0.00000034,0.00000159,-0.00000685,-0.00000245,-0.0000
 0402,-0.00000470,-0.00000281,0.00000673,-0.00000174,0.00000134,-0.0000
 5433,-0.00002722,0.00003638,0.00001105,-0.00018649,-0.00005102,-0.0004
 7551,-0.00014983,0.00012213,0.00004010,0.00005660,-0.00002062,-0.00003
 882,-0.00005133,0.00022653,-0.00004596,-0.00008865,0.00009737,0.000007
 56,0.00000565,-0.00000313,0.00019098,-0.00043610,0.00021079,0.01051374
 ,0.00068082,-0.01766148,-0.00008899,-0.00010646,-0.00200368,-0.1177033
 3,-0.00357152,0.29090741,0.00025397,0.00035634,0.00003284,0.00383153,0
 .00034860,0.00263508,0.00506840,0.00156188,-0.00046954,-0.00220674,0.0
 0091472,-0.00203860,-0.00014344,0.00057319,0.00119351,-0.00015148,0.00
 009809,-0.00017337,0.,0.00002449,0.00001096,0.00001267,-0.00000399,-0.
 00003109,0.00000419,0.00005879,0.00004722,-0.00006581,-0.00001595,-0.0
 0001467,0.00002803,-0.00000518,0.00001128,0.00004553,-0.00000675,-0.00
 001009,0.00006824,0.00004467,0.00009729,0.00001034,-0.00000517,-0.0000
 0210,0.00004816,-0.00026918,0.00008387,-0.13311074,-0.11576541,0.07899
 297,-0.00414538,-0.01245759,0.00703652,-0.00138652,-0.00014108,-0.0020
 8927,0.00196683,0.00052073,0.00503653,-0.00049701,0.00091887,-0.000384
 35,0.00002839,-0.00003618,-0.00008605,0.00001605,-0.00002299,-0.000018
 82,-0.00000208,-0.00000227,-0.00000816,-0.00000844,-0.00001554,0.00002
 426,0.00000751,-0.00000362,-0.00000651,0.00002339,-0.00006470,-0.00006
 126,-0.00000639,0.00000184,-0.00000352,-0.00001423,0.00001866,0.000017
 25,-0.00000361,0.00000406,-0.00000312,0.00000114,-0.00000158,0.0000015
 5,0.00000196,0.00000089,0.00000046,0.13085592,-0.00080717,-0.00112914,
 0.00064548,0.00102182,-0.00280419,-0.00385306,-0.01503332,-0.01550309,
 0.01239076,-0.00046772,-0.00177728,0.00172021,-0.00074369,0.00076795,0
 .00077479,0.00064002,0.00042067,-0.00029788,0.00013467,0.00011222,0.00
 001061,-0.00006315,-0.00013430,0.00000099,-0.00004365,-0.00007824,-0.0
 0002965,0.00016727,0.00002003,0.00005607,-0.00007679,-0.00001206,-0.00
 005428,-0.00010538,0.00001141,0.00000101,-0.00019763,0.00010415,0.0000
 0915,0.00008471,0.00007048,0.00000987,-0.00013650,0.00083914,0.0000853
 9,-0.11583668,-0.20262828,0.09063291,0.00530368,0.00839782,-0.00524820
 ,0.00093713,0.00088522,-0.00002231,0.00070415,0.00024951,-0.00250894,0
 .00046263,-0.00010850,-0.00029279,-0.00022338,0.00018316,0.00028109,-0
 .00004088,0.00003256,0.00004803,-0.00003719,-0.00001411,-0.00000811,0.
 00003817,0.00010630,0.00000520,0.00001746,-0.00002040,0.00001100,0.000
 10410,0.00001783,0.00002167,0.00001343,0.00000037,0.00000200,0.0000111
 8,0.00000267,0.00001282,-0.00000411,-0.00000582,-0.00000195,-0.0000307
 2,0.00004082,-0.00000246,-0.00000771,0.00000075,0.00000480,0.12392139,
 0.21134181,-0.00036421,-0.00088037,0.00025755,0.00300524,-0.00283283,0
 .00150580,-0.00599086,-0.00738289,0.00944435,-0.00152357,-0.00018881,-
 0.00213401,0.00062194,-0.00117585,-0.00056057,0.00012918,0.00019891,-0
 .00019372,0.00001869,0.00003376,0.00002327,-0.00004077,-0.00004078,-0.
 00000580,-0.00003989,0.00000099,-0.00001775,0.00004659,0.00000724,0.00
 003357,-0.00002175,-0.00000680,-0.00002936,-0.00002282,-0.00000021,-0.
 00001171,0.00009229,-0.00000273,-0.00008699,0.00000708,0.00001000,0.00
 001757,-0.00029560,0.00089276,0.00031500,0.07935304,0.09052907,-0.1062
 8093,0.01217143,0.01588401,-0.00551217,-0.00176174,0.00132953,-0.00044
 693,0.00496781,-0.00237031,-0.00075678,-0.00058131,-0.00075497,-0.0005
 8991,-0.00017711,0.00009759,0.00018805,-0.00001328,-0.00000550,0.00001
 282,-0.00000969,-0.00000341,-0.00001369,0.00001853,0.00001971,0.000014
 88,0.00000452,0.00000184,0.00001325,-0.00003936,0.00002396,0.00002640,
 0.00000257,-0.00000041,0.00000029,-0.00000883,0.00001142,0.00002865,-0
 .00000327,0.00000160,-0.00000269,-0.00000840,0.00000899,-0.00000406,-0
 .00000869,0.00000386,0.00000013,-0.08973068,-0.09434335,0.10510434,-0.
 00005413,0.00009669,-0.00009155,0.00548998,-0.00159672,0.00309627,-0.0
 0019477,-0.00036785,-0.00081478,-0.00050310,0.00014086,-0.00033473,0.0
 0012556,-0.00003759,0.00009145,-0.00000185,0.00004190,-0.00001810,-0.0
 0000497,-0.00001511,-0.00001016,0.00000102,0.00000436,-0.00000163,0.00
 000022,-0.00000090,-0.00000276,-0.00000689,0.00000165,0.00000355,0.000
 00277,0.00000005,-0.00000137,0.00000590,-0.00000122,-0.00000205,-0.000
 00323,0.00000787,0.00002430,-0.00000076,-0.00000073,-0.00000078,0.0000
 0476,0.00002530,0.00000249,0.00192727,-0.00336371,0.00312788,-0.004963
 36,0.00503714,0.01194794,-0.00094032,0.00096155,-0.00134431,-0.1479977
 0,0.03495529,0.14143507,0.00439254,-0.00082256,0.00033560,-0.00013774,
 0.00001390,-0.00017433,0.00000319,-0.00000293,-0.00000456,0.00000628,0
 .00000146,0.00000006,-0.00000336,-0.00000622,0.00000122,-0.00000025,-0
 .00000043,0.00000055,-0.00000082,-0.00000099,-0.00000039,-0.00000126,0
 .,0.00000029,0.00000097,0.00000425,0.00000010,0.00000017,-0.00000007,-
 0.00000074,0.00000027,-0.00000104,0.00000037,0.00000026,-0.00000004,-0
 .00000009,-0.00033279,0.00031586,0.00036665,0.14573032,0.00119737,-0.0
 0033159,-0.00139400,-0.00167134,-0.00411777,-0.00170523,0.00002304,-0.
 00116347,-0.00008451,0.00002769,-0.00007131,0.00020079,-0.00002693,0.0
 0011071,-0.00000688,0.00002927,0.00003021,-0.00001315,-0.00000107,-0.0
 0000438,-0.00000326,0.00000172,0.00000252,0.00000118,0.00000212,-0.000
 00670,0.00000037,-0.00000084,0.00000238,-0.00000213,0.00000086,0.00000
 037,0.00000115,0.00000053,-0.00000020,0.00000104,-0.00002280,0.0000284
 7,0.00002858,0.00000207,0.00000390,-0.00000266,0.00003463,0.00006649,-
 0.00002822,-0.00336106,-0.00305144,0.00157260,-0.01321676,0.00744388,0
 .01703501,0.00004879,0.00123756,0.00097007,0.03606728,-0.07095896,-0.0
 5282790,0.01717061,-0.00136141,-0.02249522,-0.00012067,-0.00036027,0.0
 0006194,0.00000329,-0.00000039,-0.00000123,0.00000050,0.00000048,0.000
 00052,0.00000130,0.00000012,-0.00000105,-0.00000091,0.00000014,-0.0000
 0101,0.00000329,-0.00000126,-0.00000034,0.00000009,0.00000012,-0.00000
 005,0.00000223,-0.00000036,-0.00000382,0.00000005,-0.00000026,0.000000
 58,-0.00000121,0.00000142,0.00000089,0.00000120,-0.00000108,-0.0000001
 5,-0.00053108,0.00058209,0.00081051,-0.03620347,0.07095763,0.00020100,
 -0.00021754,-0.00044582,0.00318668,-0.00164300,0.00412149,-0.00088569,
 0.00027679,0.00030902,-0.00017724,0.00004670,-0.00057979,0.00010134,-0
 .00009535,0.00013051,-0.00004710,-0.00001790,-0.00005026,0.00000257,0.
 00002453,0.00001385,-0.00000329,-0.00000660,-0.00000182,-0.00000253,0.
 00000212,0.00000070,0.00000698,-0.00000067,0.00000494,-0.00000421,-0.0
 0000079,-0.00000472,-0.00000406,0.00000042,-0.00000221,0.00001439,-0.0
 0001047,0.00002455,0.00000034,-0.00000155,-0.00000224,0.00001263,0.000
 04017,-0.00000559,0.00316562,0.00160653,0.00200321,0.00657138,-0.00504
 557,-0.00566898,-0.00160942,-0.00010449,-0.00039063,0.14174881,-0.0515
 8834,-0.22482599,0.00556210,-0.00063706,-0.00201887,-0.00021809,-0.000
 02450,-0.00004832,-0.00000011,0.00000608,0.00000255,-0.00000558,-0.000
 00293,-0.00000181,0.00000064,0.00000152,0.00000129,0.00000088,-0.00000
 063,0.00000137,-0.00000068,0.00000195,0.00000132,0.00000053,-0.0000001
 7,0.00000041,-0.00000345,0.00000213,0.00000270,-0.00000006,-0.00000049
 ,-0.00000089,-0.00000010,0.00000042,0.00000032,0.00000012,-0.00000022,
 -0.00000027,0.00008425,-0.00018867,-0.00024395,-0.15511284,0.05685526,
 0.22918282,-0.00077523,-0.00032615,-0.00286788,-0.00471087,-0.01422761
 ,0.00750419,0.00109862,0.00072210,0.00460956,0.00001834,-0.00086078,-0
 .00028097,-0.00034054,0.00005944,0.00030681,0.00002665,-0.00005540,0.0
 0001768,0.00001811,0.00003663,0.00002275,-0.00001248,-0.00001943,-0.00
 000343,-0.00001029,-0.00000686,-0.00000302,0.00002426,0.00000231,0.000
 01452,-0.00001276,-0.00000127,-0.00001424,-0.00001418,0.00000173,-0.00
 000445,-0.00000282,0.00001152,-0.00000226,0.00000488,0.00000236,0.0000
 0723,0.00005981,0.00010211,0.00000757,-0.00056432,0.00108029,-0.000187
 76,0.00501766,0.00000156,0.00301697,0.00019584,0.00035486,0.00010048,0
 .00508105,0.00312662,-0.00134269,-0.12861408,-0.11525381,0.07828259,-0
 .00038761,0.00017101,-0.00032109,-0.00002157,0.00002289,0.00001691,-0.
 00001349,-0.00000447,-0.00000374,0.00000718,0.00001342,0.00000296,0.00
 000333,-0.00000243,0.00000476,0.00000264,0.00000573,0.00000333,0.00000
 099,-0.00000112,0.00000069,-0.00000600,0.00000055,0.00000733,-0.000002
 00,-0.00000088,-0.00000039,-0.00000229,0.00000516,-0.00000025,-0.00000
 388,0.00000317,-0.00000037,-0.00019760,-0.00002204,-0.00016372,-0.0025
 4417,0.00054023,-0.00258581,0.12667686,0.00039129,0.00053413,0.0005763
 2,0.00476696,0.00812487,-0.00475656,0.00036100,0.00012404,-0.00182978,
 0.00024701,0.00039955,-0.00015906,0.00016490,-0.00004075,-0.00015805,-
 0.00000351,0.00003638,-0.00004208,-0.00001099,-0.00001456,-0.00000771,
 0.00000712,0.00001188,0.00000147,0.00000476,0.00000181,0.00000125,-0.0
 0001463,0.00000100,-0.00000454,0.00000719,0.00000088,0.00000546,0.0000
 0864,-0.00000147,0.00000046,-0.00001432,0.00001289,0.00005112,-0.00000
 158,-0.00000029,-0.00000797,0.00002701,0.00005940,-0.00005996,0.000585
 90,-0.00014694,-0.00044914,0.00026430,-0.00214294,-0.00313614,-0.00046
 920,-0.00134583,0.00011580,-0.01536296,-0.01553152,0.01294396,-0.11639
 281,-0.20797170,0.08925761,0.00010128,0.00009043,0.00011103,0.00001704
 ,-0.00000581,-0.00001131,0.00000476,0.00000125,0.00000177,-0.00000220,
 -0.00000665,-0.00000172,-0.00000216,0.00000175,-0.00000234,-0.00000152
 ,-0.00000282,-0.00000109,-0.00000120,0.00000021,-0.00000020,0.00000124
 ,-0.00000141,-0.00000516,0.00000020,0.00000072,0.00000083,0.00000077,-
 0.00000190,0.00000056,0.00000267,-0.00000226,-0.00000039,-0.00001894,0
 .00002846,0.00012346,0.00081345,0.00096236,0.00072233,0.12451855,0.216
 82486,-0.00267760,0.00146649,0.00050480,0.01312362,0.01785196,-0.00531
 866,0.00443377,-0.00221840,-0.00126116,0.00011632,0.00115358,0.0002112
 2,0.00029061,-0.00012077,-0.00044383,-0.00003128,0.00009427,-0.0000259
 8,-0.00002374,-0.00005176,-0.00002804,0.00001424,0.00002915,0.00000160
 ,0.00001194,0.00000603,-0.00000190,-0.00003373,0.00000042,-0.00000866,
 0.00001586,0.00000218,0.00001070,0.00002151,-0.00000322,0.00000076,-0.
 00000320,-0.00000311,0.00003842,-0.00000608,-0.00000257,-0.00001675,-0
 .00005977,-0.00010512,0.00001328,-0.00025897,-0.00104409,-0.00095413,0
 .00302026,-0.00287828,0.00309177,-0.00013434,-0.00086349,0.00009862,-0
 .00669032,-0.00901790,0.00861276,0.07795562,0.08782725,-0.10330418,-0.
 00028739,0.00004770,-0.00025932,0.00003336,-0.00002389,-0.00002860,0.0
 0001517,0.00000557,0.00000608,-0.00000742,-0.00001769,-0.00000242,-0.0
 0000534,0.00000391,-0.00000342,-0.00000559,-0.00000531,-0.00000387,-0.
 00000274,0.,0.00000012,0.00000443,-0.00000126,-0.00001160,-0.00000012,
 0.00000082,0.00000149,0.00000299,-0.00000616,0.00000099,0.00000546,-0.
 00000423,-0.00000067,-0.00017464,0.00012782,-0.00009489,-0.00251863,0.
 00103032,-0.00150891,-0.08614424,-0.09328021,0.10068436\\0.00000588,-0
 .00000087,0.00000800,-0.00000219,0.00000257,-0.00000029,0.00000358,0.0
 0000061,0.00000041,-0.00000133,-0.00000962,0.00000020,0.00000202,-0.00
 000012,-0.00000517,-0.00000455,-0.00000417,-0.00000093,-0.00000455,-0.
 00000308,0.00000107,-0.00000391,-0.00000284,-0.00000905,0.00000067,-0.
 00000035,-0.00000154,0.00000186,0.00000351,-0.00000476,-0.00000320,0.0
 0000771,0.00000057,-0.00000057,0.00000005,-0.00000339,0.00000683,-0.00
 000326,-0.00000369,-0.00000256,-0.00000376,0.00000504,-0.00000139,0.00
 000330,0.00000917,-0.00000017,0.00000057,-0.00000245,-0.00000097,0.000
 00627,-0.00000008,0.,0.00000418,-0.00000591,0.00000182,0.00000500,0.00
 000071,0.00000115,0.00000149,0.00000365,-0.00000183,-0.00000275,0.0000
 0632,-0.00000176,-0.00000622,-0.00000251,-0.00000026,-0.00000385,-0.00
 000116,-0.00000268,-0.00000112,-0.00000469,0.00000103,0.00000224,-0.00
 000054,0.00000022,0.00000152,-0.00000357,0.00000421,0.00000539,-0.0000
 0442,-0.00000224,-0.00000475,0.00000396,0.00000096,-0.00000112,0.00000
 352,0.00000103,-0.00000342,0.00000666,-0.00000035,-0.00000466,0.000003
 95,-0.00000074,0.00000098,-0.00000420,0.00000145,0.00000625,0.00000026
 ,0.00000253,0.00000433,0.00000487\\\@


 TIME IS IN FACT THE HERO OF THE PLOT. THE TIME
 WITH WHICH WE HAVE TO DEAL IS OF THE ORDER OF TWO
 BILLION YEARS...GIVEN SO MUCH TIME, THE "IMPOSSIBLE"
 BECOMES POSSIBLE, THE POSSIBLE PROBABLE, THE PROBABLE
 VIRTUALLY CERTAIN.  ONE HAS ONLY TO WAIT, TIME
 ITSELF PERFORMS THE MIRACLES.
 "ORIGIN OF LIFE" LECTURES, GEORGE WALD, 1954
 Job cpu time:  0 days  8 hours  8 minutes  3.8 seconds.
 File lengths (MBytes):  RWF=    866 Int=      0 D2E=      0 Chk=     20 Scr=      1
 Normal termination of Gaussian 09 at Sat Mar 23 00:47:12 2019.
