 Entering Gaussian System, Link 0=g09
 Initial command:
 /home/yuheng/proj/yuheng/g09/l1.exe /home/yuheng/proj/yuheng/g09_scratch/Gau-205439.inp -scrdir=/home/yuheng/proj/yuheng/g09_scratch/
 Entering Link 1 = /home/yuheng/proj/yuheng/g09/l1.exe PID=    205440.
  
 Copyright (c) 1988,1990,1992,1993,1995,1998,2003,2009,2010,
            Gaussian, Inc.  All Rights Reserved.
  
 This is part of the Gaussian(R) 09 program.  It is based on
 the Gaussian(R) 03 system (copyright 2003, Gaussian, Inc.),
 the Gaussian(R) 98 system (copyright 1998, Gaussian, Inc.),
 the Gaussian(R) 94 system (copyright 1995, Gaussian, Inc.),
 the Gaussian 92(TM) system (copyright 1992, Gaussian, Inc.),
 the Gaussian 90(TM) system (copyright 1990, Gaussian, Inc.),
 the Gaussian 88(TM) system (copyright 1988, Gaussian, Inc.),
 the Gaussian 86(TM) system (copyright 1986, Carnegie Mellon
 University), and the Gaussian 82(TM) system (copyright 1983,
 Carnegie Mellon University). Gaussian is a federally registered
 trademark of Gaussian, Inc.
  
 This software contains proprietary and confidential information,
 including trade secrets, belonging to Gaussian, Inc.
  
 This software is provided under written license and may be
 used, copied, transmitted, or stored only in accord with that
 written license.
  
 The following legend is applicable only to US Government
 contracts under FAR:
  
                    RESTRICTED RIGHTS LEGEND
  
 Use, reproduction and disclosure by the US Government is
 subject to restrictions as set forth in subparagraphs (a)
 and (c) of the Commercial Computer Software - Restricted
 Rights clause in FAR 52.227-19.
  
 Gaussian, Inc.
 340 Quinnipiac St., Bldg. 40, Wallingford CT 06492
  
  
 ---------------------------------------------------------------
 Warning -- This program may not be used in any manner that
 competes with the business of Gaussian, Inc. or will provide
 assistance to any competitor of Gaussian, Inc.  The licensee
 of this program is prohibited from giving any competitor of
 Gaussian, Inc. access to this program.  By using this program,
 the user acknowledges that Gaussian, Inc. is engaged in the
 business of creating and licensing software in the field of
 computational chemistry and represents and warrants to the
 licensee that it is not a competitor of Gaussian, Inc. and that
 it will not use this program in any manner prohibited above.
 ---------------------------------------------------------------
  

 Cite this work as:
 Gaussian 09, Revision B.01,
 M. J. Frisch, G. W. Trucks, H. B. Schlegel, G. E. Scuseria, 
 M. A. Robb, J. R. Cheeseman, G. Scalmani, V. Barone, B. Mennucci, 
 G. A. Petersson, H. Nakatsuji, M. Caricato, X. Li, H. P. Hratchian, 
 A. F. Izmaylov, J. Bloino, G. Zheng, J. L. Sonnenberg, M. Hada, 
 M. Ehara, K. Toyota, R. Fukuda, J. Hasegawa, M. Ishida, T. Nakajima, 
 Y. Honda, O. Kitao, H. Nakai, T. Vreven, J. A. Montgomery, Jr., 
 J. E. Peralta, F. Ogliaro, M. Bearpark, J. J. Heyd, E. Brothers, 
 K. N. Kudin, V. N. Staroverov, T. Keith, R. Kobayashi, J. Normand, 
 K. Raghavachari, A. Rendell, J. C. Burant, S. S. Iyengar, J. Tomasi, 
 M. Cossi, N. Rega, J. M. Millam, M. Klene, J. E. Knox, J. B. Cross, 
 V. Bakken, C. Adamo, J. Jaramillo, R. Gomperts, R. E. Stratmann, 
 O. Yazyev, A. J. Austin, R. Cammi, C. Pomelli, J. W. Ochterski, 
 R. L. Martin, K. Morokuma, V. G. Zakrzewski, G. A. Voth, 
 P. Salvador, J. J. Dannenberg, S. Dapprich, A. D. Daniels, 
 O. Farkas, J. B. Foresman, J. V. Ortiz, J. Cioslowski, 
 and D. J. Fox, Gaussian, Inc., Wallingford CT, 2010.
 
 ******************************************
 Gaussian 09:  EM64L-G09RevB.01 12-Aug-2010
                22-Mar-2019 
 ******************************************
 %mem=16gb
 %nprocshared=20
 Will use up to   20 processors via shared memory.
 %chk=1b-conf-5.chk
 ----------------------------------------------------------------------
 # m062x/6-31+G(d,p) opt freq=noraman integral(ultrafinegrid) scrf=(ief
 pcm,read,solvent=methanol)
 ----------------------------------------------------------------------
 1/14=-1,18=20,19=15,26=3,38=1,40=2/1,3;
 2/9=110,12=2,17=6,18=5,40=1/2;
 3/5=1,6=6,7=111,11=2,16=1,25=1,30=1,70=2203,71=1,72=3,74=-55,75=-5/1,2,3;
 4//1;
 5/5=2,38=5,53=3/2;
 6/7=2,8=2,9=2,10=2,28=1/1;
 7//1,2,3,16;
 1/14=-1,18=20,19=15/3(2);
 2/9=110/2;
 99//99;
 2/9=110/2;
 3/5=1,6=6,7=111,11=2,16=1,25=1,30=1,70=2205,71=1,72=3,74=-55,75=-5/1,2,3;
 4/5=5,16=3/1;
 5/5=2,38=5,53=3/2;
 7//1,2,3,16;
 1/14=-1,18=20,19=15/3(-5);
 2/9=110/2;
 6/7=2,8=2,9=2,10=2,19=2,28=1/1;
 99/9=1/99;
 ----------------------------------------------------------------------
 Candidate Structure: 1b, Conformer: 5 geometry optimization and freque
 ncy calculation with methanol solvation
 ----------------------------------------------------------------------
 Symbolic Z-matrix:
 Charge =  0 Multiplicity = 1
 O                    -0.10203   0.48896  -1.34951 
 C                    -1.0003    1.50003  -1.15456 
 C                    -0.58906   2.84569  -0.93779 
 C                     0.8368    3.27039  -0.91857 
 N                     1.80719   2.45667  -0.83477 
 C                     3.03363   3.20599  -0.90156 
 C                     4.09914   2.51138  -1.80567 
 O                     4.3706    1.26196  -1.19782 
 C                     3.82821   2.28737  -3.32622 
 C                     2.45296   1.74785  -3.73909 
 O                     2.22722   0.4842   -3.28931 
 O                     1.64636   2.39813  -4.39607 
 C                     2.6106    4.66938  -1.15563 
 C                     2.94062   5.31487  -2.50883 
 O                     1.20501   4.58109  -1.03289 
 C                    -1.57084   3.84324  -0.75 
 C                    -2.93861   3.51408  -0.77345 
 Cl                   -4.12409   4.7451   -0.54041 
 C                    -3.3399    2.1829   -0.98812 
 C                    -2.3719    1.17921  -1.17948 
 H                     0.77584   0.82197  -1.16911 
 H                     3.45872   3.20296   0.10561 
 H                     5.02046   3.09055  -1.73039 
 H                     3.5322    0.83016  -1.08971 
 H                     4.58321   1.61094  -3.72784 
 H                     3.98634   3.21784  -3.86793 
 H                     1.35593   0.20984  -3.53842 
 H                     2.9953    5.30621  -0.3575 
 H                     2.44474   4.80189  -3.33191 
 H                     2.59484   6.34847  -2.52837 
 H                     4.01421   5.32838  -2.6958 
 H                    -1.28099   4.87136  -0.58788 
 H                    -4.39034   1.93206  -1.00695 
 H                    -2.68367   0.15808  -1.34508 
 

 GradGradGradGradGradGradGradGradGradGradGradGradGradGradGradGradGradGrad
 Berny optimization.
 Initialization pass.
                           ----------------------------
                           !    Initial Parameters    !
                           ! (Angstroms and Degrees)  !
 --------------------------                            --------------------------
 ! Name  Definition              Value          Derivative Info.                !
 --------------------------------------------------------------------------------
 ! R1    R(1,2)                  1.3664         estimate D2E/DX2                !
 ! R2    R(1,21)                 0.9561         estimate D2E/DX2                !
 ! R3    R(2,3)                  1.4237         estimate D2E/DX2                !
 ! R4    R(2,20)                 1.4088         estimate D2E/DX2                !
 ! R5    R(3,4)                  1.4879         estimate D2E/DX2                !
 ! R6    R(3,16)                 1.4122         estimate D2E/DX2                !
 ! R7    R(4,5)                  1.2692         estimate D2E/DX2                !
 ! R8    R(4,15)                 1.3662         estimate D2E/DX2                !
 ! R9    R(5,6)                  1.4388         estimate D2E/DX2                !
 ! R10   R(6,7)                  1.5605         estimate D2E/DX2                !
 ! R11   R(6,13)                 1.5443         estimate D2E/DX2                !
 ! R12   R(6,22)                 1.0932         estimate D2E/DX2                !
 ! R13   R(7,8)                  1.4157         estimate D2E/DX2                !
 ! R14   R(7,9)                  1.5607         estimate D2E/DX2                !
 ! R15   R(7,23)                 1.0908         estimate D2E/DX2                !
 ! R16   R(8,24)                 0.9492         estimate D2E/DX2                !
 ! R17   R(9,10)                 1.5339         estimate D2E/DX2                !
 ! R18   R(9,25)                 1.0904         estimate D2E/DX2                !
 ! R19   R(9,26)                 1.0882         estimate D2E/DX2                !
 ! R20   R(10,11)                1.3602         estimate D2E/DX2                !
 ! R21   R(10,12)                1.2268         estimate D2E/DX2                !
 ! R22   R(11,27)                0.9468         estimate D2E/DX2                !
 ! R23   R(13,14)                1.5352         estimate D2E/DX2                !
 ! R24   R(13,15)                1.4137         estimate D2E/DX2                !
 ! R25   R(13,28)                1.0911         estimate D2E/DX2                !
 ! R26   R(14,29)                1.0893         estimate D2E/DX2                !
 ! R27   R(14,30)                1.0901         estimate D2E/DX2                !
 ! R28   R(14,31)                1.0898         estimate D2E/DX2                !
 ! R29   R(16,17)                1.407          estimate D2E/DX2                !
 ! R30   R(16,32)                1.0804         estimate D2E/DX2                !
 ! R31   R(17,18)                1.7248         estimate D2E/DX2                !
 ! R32   R(17,19)                1.4068         estimate D2E/DX2                !
 ! R33   R(19,20)                1.4075         estimate D2E/DX2                !
 ! R34   R(19,33)                1.0801         estimate D2E/DX2                !
 ! R35   R(20,34)                1.0804         estimate D2E/DX2                !
 ! A1    A(2,1,21)             108.6001         estimate D2E/DX2                !
 ! A2    A(1,2,3)              122.0869         estimate D2E/DX2                !
 ! A3    A(1,2,20)             117.9682         estimate D2E/DX2                !
 ! A4    A(3,2,20)             119.9442         estimate D2E/DX2                !
 ! A5    A(2,3,4)              123.2693         estimate D2E/DX2                !
 ! A6    A(2,3,16)             119.1499         estimate D2E/DX2                !
 ! A7    A(4,3,16)             117.5737         estimate D2E/DX2                !
 ! A8    A(3,4,5)              123.4049         estimate D2E/DX2                !
 ! A9    A(3,4,15)             122.0749         estimate D2E/DX2                !
 ! A10   A(5,4,15)             114.4907         estimate D2E/DX2                !
 ! A11   A(4,5,6)              108.3467         estimate D2E/DX2                !
 ! A12   A(5,6,7)              112.1542         estimate D2E/DX2                !
 ! A13   A(5,6,13)             105.5241         estimate D2E/DX2                !
 ! A14   A(5,6,22)             106.6928         estimate D2E/DX2                !
 ! A15   A(7,6,13)             120.8969         estimate D2E/DX2                !
 ! A16   A(7,6,22)             105.4883         estimate D2E/DX2                !
 ! A17   A(13,6,22)            105.1122         estimate D2E/DX2                !
 ! A18   A(6,7,8)              105.9619         estimate D2E/DX2                !
 ! A19   A(6,7,9)              120.6528         estimate D2E/DX2                !
 ! A20   A(6,7,23)             107.4799         estimate D2E/DX2                !
 ! A21   A(8,7,9)              108.9619         estimate D2E/DX2                !
 ! A22   A(8,7,23)             106.0812         estimate D2E/DX2                !
 ! A23   A(9,7,23)             106.862          estimate D2E/DX2                !
 ! A24   A(7,8,24)             106.3204         estimate D2E/DX2                !
 ! A25   A(7,9,10)             117.929          estimate D2E/DX2                !
 ! A26   A(7,9,25)             109.1301         estimate D2E/DX2                !
 ! A27   A(7,9,26)             109.6975         estimate D2E/DX2                !
 ! A28   A(10,9,25)            107.6658         estimate D2E/DX2                !
 ! A29   A(10,9,26)            107.2793         estimate D2E/DX2                !
 ! A30   A(25,9,26)            104.2684         estimate D2E/DX2                !
 ! A31   A(9,10,11)            112.7411         estimate D2E/DX2                !
 ! A32   A(9,10,12)            123.1737         estimate D2E/DX2                !
 ! A33   A(11,10,12)           124.0831         estimate D2E/DX2                !
 ! A34   A(10,11,27)           109.5684         estimate D2E/DX2                !
 ! A35   A(6,13,14)            118.9839         estimate D2E/DX2                !
 ! A36   A(6,13,15)            101.4719         estimate D2E/DX2                !
 ! A37   A(6,13,28)            109.6411         estimate D2E/DX2                !
 ! A38   A(14,13,15)           108.4536         estimate D2E/DX2                !
 ! A39   A(14,13,28)           108.8791         estimate D2E/DX2                !
 ! A40   A(15,13,28)           108.8738         estimate D2E/DX2                !
 ! A41   A(13,14,29)           111.7262         estimate D2E/DX2                !
 ! A42   A(13,14,30)           110.2609         estimate D2E/DX2                !
 ! A43   A(13,14,31)           111.6049         estimate D2E/DX2                !
 ! A44   A(29,14,30)           106.7734         estimate D2E/DX2                !
 ! A45   A(29,14,31)           108.9455         estimate D2E/DX2                !
 ! A46   A(30,14,31)           107.3168         estimate D2E/DX2                !
 ! A47   A(4,15,13)            109.5811         estimate D2E/DX2                !
 ! A48   A(3,16,17)            120.5546         estimate D2E/DX2                !
 ! A49   A(3,16,32)            120.3732         estimate D2E/DX2                !
 ! A50   A(17,16,32)           119.0722         estimate D2E/DX2                !
 ! A51   A(16,17,18)           119.9279         estimate D2E/DX2                !
 ! A52   A(16,17,19)           120.0789         estimate D2E/DX2                !
 ! A53   A(18,17,19)           119.9931         estimate D2E/DX2                !
 ! A54   A(17,19,20)           119.9556         estimate D2E/DX2                !
 ! A55   A(17,19,33)           119.9865         estimate D2E/DX2                !
 ! A56   A(20,19,33)           120.0579         estimate D2E/DX2                !
 ! A57   A(2,20,19)            120.3166         estimate D2E/DX2                !
 ! A58   A(2,20,34)            119.9252         estimate D2E/DX2                !
 ! A59   A(19,20,34)           119.7582         estimate D2E/DX2                !
 ! D1    D(21,1,2,3)             9.2249         estimate D2E/DX2                !
 ! D2    D(21,1,2,20)         -171.0967         estimate D2E/DX2                !
 ! D3    D(1,2,3,4)              0.6696         estimate D2E/DX2                !
 ! D4    D(1,2,3,16)           179.6755         estimate D2E/DX2                !
 ! D5    D(20,2,3,4)          -179.0025         estimate D2E/DX2                !
 ! D6    D(20,2,3,16)            0.0033         estimate D2E/DX2                !
 ! D7    D(1,2,20,19)         -179.8204         estimate D2E/DX2                !
 ! D8    D(1,2,20,34)            0.2478         estimate D2E/DX2                !
 ! D9    D(3,2,20,19)           -0.1349         estimate D2E/DX2                !
 ! D10   D(3,2,20,34)          179.9333         estimate D2E/DX2                !
 ! D11   D(2,3,4,5)            -14.0473         estimate D2E/DX2                !
 ! D12   D(2,3,4,15)           163.8669         estimate D2E/DX2                !
 ! D13   D(16,3,4,5)           166.9322         estimate D2E/DX2                !
 ! D14   D(16,3,4,15)          -15.1536         estimate D2E/DX2                !
 ! D15   D(2,3,16,17)            0.134          estimate D2E/DX2                !
 ! D16   D(2,3,16,32)         -179.7573         estimate D2E/DX2                !
 ! D17   D(4,3,16,17)          179.1963         estimate D2E/DX2                !
 ! D18   D(4,3,16,32)           -0.695          estimate D2E/DX2                !
 ! D19   D(3,4,5,6)            177.543          estimate D2E/DX2                !
 ! D20   D(15,4,5,6)            -0.5149         estimate D2E/DX2                !
 ! D21   D(3,4,15,13)         -172.5157         estimate D2E/DX2                !
 ! D22   D(5,4,15,13)            5.571          estimate D2E/DX2                !
 ! D23   D(4,5,6,7)           -137.7259         estimate D2E/DX2                !
 ! D24   D(4,5,6,13)            -4.2129         estimate D2E/DX2                !
 ! D25   D(4,5,6,22)           107.243          estimate D2E/DX2                !
 ! D26   D(5,6,7,8)            -61.8709         estimate D2E/DX2                !
 ! D27   D(5,6,7,9)             62.3493         estimate D2E/DX2                !
 ! D28   D(5,6,7,23)          -174.9578         estimate D2E/DX2                !
 ! D29   D(13,6,7,8)           172.6492         estimate D2E/DX2                !
 ! D30   D(13,6,7,9)           -63.1306         estimate D2E/DX2                !
 ! D31   D(13,6,7,23)           59.5622         estimate D2E/DX2                !
 ! D32   D(22,6,7,8)            53.8921         estimate D2E/DX2                !
 ! D33   D(22,6,7,9)           178.1123         estimate D2E/DX2                !
 ! D34   D(22,6,7,23)          -59.1949         estimate D2E/DX2                !
 ! D35   D(5,6,13,14)         -111.8334         estimate D2E/DX2                !
 ! D36   D(5,6,13,15)            6.9598         estimate D2E/DX2                !
 ! D37   D(5,6,13,28)          121.9776         estimate D2E/DX2                !
 ! D38   D(7,6,13,14)           16.6529         estimate D2E/DX2                !
 ! D39   D(7,6,13,15)          135.4462         estimate D2E/DX2                !
 ! D40   D(7,6,13,28)         -109.536          estimate D2E/DX2                !
 ! D41   D(22,6,13,14)         135.5968         estimate D2E/DX2                !
 ! D42   D(22,6,13,15)        -105.6099         estimate D2E/DX2                !
 ! D43   D(22,6,13,28)           9.4078         estimate D2E/DX2                !
 ! D44   D(6,7,8,24)            53.8849         estimate D2E/DX2                !
 ! D45   D(9,7,8,24)           -77.3372         estimate D2E/DX2                !
 ! D46   D(23,7,8,24)          167.9387         estimate D2E/DX2                !
 ! D47   D(6,7,9,10)           -44.8928         estimate D2E/DX2                !
 ! D48   D(6,7,9,25)          -168.0835         estimate D2E/DX2                !
 ! D49   D(6,7,9,26)            78.2593         estimate D2E/DX2                !
 ! D50   D(8,7,9,10)            77.9017         estimate D2E/DX2                !
 ! D51   D(8,7,9,25)           -45.2889         estimate D2E/DX2                !
 ! D52   D(8,7,9,26)          -158.9462         estimate D2E/DX2                !
 ! D53   D(23,7,9,10)         -167.8815         estimate D2E/DX2                !
 ! D54   D(23,7,9,25)           68.9279         estimate D2E/DX2                !
 ! D55   D(23,7,9,26)          -44.7294         estimate D2E/DX2                !
 ! D56   D(7,9,10,11)          -65.2552         estimate D2E/DX2                !
 ! D57   D(7,9,10,12)          114.2321         estimate D2E/DX2                !
 ! D58   D(25,9,10,11)          58.6697         estimate D2E/DX2                !
 ! D59   D(25,9,10,12)        -121.8429         estimate D2E/DX2                !
 ! D60   D(26,9,10,11)         170.3828         estimate D2E/DX2                !
 ! D61   D(26,9,10,12)         -10.1299         estimate D2E/DX2                !
 ! D62   D(9,10,11,27)         177.7246         estimate D2E/DX2                !
 ! D63   D(12,10,11,27)         -1.7573         estimate D2E/DX2                !
 ! D64   D(6,13,14,29)          62.3898         estimate D2E/DX2                !
 ! D65   D(6,13,14,30)        -179.0399         estimate D2E/DX2                !
 ! D66   D(6,13,14,31)         -59.8668         estimate D2E/DX2                !
 ! D67   D(15,13,14,29)        -52.7314         estimate D2E/DX2                !
 ! D68   D(15,13,14,30)         65.8389         estimate D2E/DX2                !
 ! D69   D(15,13,14,31)       -174.988          estimate D2E/DX2                !
 ! D70   D(28,13,14,29)       -171.0597         estimate D2E/DX2                !
 ! D71   D(28,13,14,30)        -52.4894         estimate D2E/DX2                !
 ! D72   D(28,13,14,31)         66.6837         estimate D2E/DX2                !
 ! D73   D(6,13,15,4)           -7.3979         estimate D2E/DX2                !
 ! D74   D(14,13,15,4)         118.6856         estimate D2E/DX2                !
 ! D75   D(28,13,15,4)        -122.9827         estimate D2E/DX2                !
 ! D76   D(3,16,17,18)         179.9286         estimate D2E/DX2                !
 ! D77   D(3,16,17,19)          -0.1404         estimate D2E/DX2                !
 ! D78   D(32,16,17,18)         -0.1786         estimate D2E/DX2                !
 ! D79   D(32,16,17,19)        179.7524         estimate D2E/DX2                !
 ! D80   D(16,17,19,20)          0.0077         estimate D2E/DX2                !
 ! D81   D(16,17,19,33)       -179.9307         estimate D2E/DX2                !
 ! D82   D(18,17,19,20)        179.9386         estimate D2E/DX2                !
 ! D83   D(18,17,19,33)          0.0002         estimate D2E/DX2                !
 ! D84   D(17,19,20,2)           0.1298         estimate D2E/DX2                !
 ! D85   D(17,19,20,34)       -179.9383         estimate D2E/DX2                !
 ! D86   D(33,19,20,2)        -179.9318         estimate D2E/DX2                !
 ! D87   D(33,19,20,34)          0.0            estimate D2E/DX2                !
 --------------------------------------------------------------------------------
 Trust Radius=3.00D-01 FncErr=1.00D-07 GrdErr=1.00D-06
 Number of steps in this run=    191 maximum allowed number of steps=    204.
 GradGradGradGradGradGradGradGradGradGradGradGradGradGradGradGradGradGrad

                          Input orientation:                          
 ---------------------------------------------------------------------
 Center     Atomic      Atomic             Coordinates (Angstroms)
 Number     Number       Type             X           Y           Z
 ---------------------------------------------------------------------
      1          8           0       -0.102028    0.488962   -1.349510
      2          6           0       -1.000301    1.500034   -1.154559
      3          6           0       -0.589055    2.845691   -0.937794
      4          6           0        0.836800    3.270390   -0.918574
      5          7           0        1.807192    2.456668   -0.834765
      6          6           0        3.033633    3.205992   -0.901559
      7          6           0        4.099141    2.511381   -1.805672
      8          8           0        4.370596    1.261963   -1.197823
      9          6           0        3.828211    2.287373   -3.326216
     10          6           0        2.452963    1.747853   -3.739086
     11          8           0        2.227216    0.484199   -3.289308
     12          8           0        1.646358    2.398126   -4.396073
     13          6           0        2.610602    4.669379   -1.155635
     14          6           0        2.940621    5.314874   -2.508833
     15          8           0        1.205007    4.581089   -1.032886
     16          6           0       -1.570838    3.843244   -0.749999
     17          6           0       -2.938614    3.514083   -0.773453
     18         17           0       -4.124092    4.745102   -0.540413
     19          6           0       -3.339902    2.182895   -0.988120
     20          6           0       -2.371897    1.179211   -1.179482
     21          1           0        0.775839    0.821971   -1.169112
     22          1           0        3.458715    3.202963    0.105609
     23          1           0        5.020461    3.090552   -1.730393
     24          1           0        3.532196    0.830161   -1.089707
     25          1           0        4.583211    1.610942   -3.727842
     26          1           0        3.986337    3.217842   -3.867934
     27          1           0        1.355927    0.209841   -3.538418
     28          1           0        2.995302    5.306210   -0.357500
     29          1           0        2.444735    4.801890   -3.331908
     30          1           0        2.594835    6.348470   -2.528373
     31          1           0        4.014210    5.328385   -2.695801
     32          1           0       -1.280985    4.871357   -0.587877
     33          1           0       -4.390344    1.932062   -1.006950
     34          1           0       -2.683671    0.158075   -1.345083
 ---------------------------------------------------------------------
                    Distance matrix (angstroms):
                    1          2          3          4          5
     1  O    0.000000
     2  C    1.366443   0.000000
     3  C    2.441491   1.423693   0.000000
     4  C    2.967060   2.562184   1.487885   0.000000
     5  N    2.789615   2.983192   2.429805   1.269184   0.000000
     6  C    4.173162   4.387132   3.640741   2.197843   1.438786
     7  C    4.684878   5.239378   4.779556   3.464954   2.489716
     8  O    4.541465   5.376345   5.212864   4.074245   2.851346
     9  C    4.752728   5.352619   5.052575   3.963786   3.212555
    10  C    3.717911   4.320443   4.278593   3.589623   3.058516
    11  O    3.031207   4.000742   4.363215   3.913630   3.176765
    12  O    3.997913   4.280045   4.142110   3.675490   3.565419
    13  C    4.987167   4.804516   3.689322   2.271506   2.375819
    14  C    5.821612   5.649595   4.585154   3.336900   3.500929
    15  O    4.307446   3.790922   2.497861   1.366227   2.216990
    16  C    3.710529   2.445366   1.412189   2.480585   3.652515
    17  C    4.186815   2.821115   2.448302   3.786053   4.862567
    18  Cl   5.911545   4.545956   4.032637   5.189242   6.364252
    19  C    3.672035   2.442895   2.830016   4.316517   5.156651
    20  C    2.378583   1.408838   2.452365   3.838859   4.383550
    21  H    0.956080   1.901224   2.451915   2.461959   1.961558
    22  H    4.707660   4.936680   4.195328   2.815659   2.041761
    23  H    5.757885   6.253871   5.670524   4.265491   3.395446
    24  H    3.659440   4.582190   4.590223   3.639940   2.384567
    25  H    5.372780   6.148959   6.005107   4.968033   4.097735
    26  H    5.523040   5.931258   5.445955   4.315214   3.811584
    27  H    2.644780   3.591545   4.182572   4.062024   3.544236
    28  H    5.812350   5.575583   4.386173   3.019685   3.123984
    29  H    5.386766   5.245129   4.331556   3.279501   3.484573
    30  H    6.557181   6.190291   4.993652   3.893163   4.316806
    31  H    6.494300   6.494384   5.517645   4.182082   4.071995
    32  H    4.601675   3.430121   2.168993   2.675345   3.927915
    33  H    4.537570   3.420647   3.910153   5.396477   6.222083
    34  H    2.602765   2.161224   3.431702   4.718276   5.070681
                    6          7          8          9         10
     6  C    0.000000
     7  C    1.560517   0.000000
     8  O    2.377917   1.415702   0.000000
     9  C    2.711859   1.560653   2.423985   0.000000
    10  C    3.242670   2.651597   3.220469   1.533900   0.000000
    11  O    3.709422   3.132849   3.094076   2.411635   1.360178
    12  O    3.845622   3.569194   4.352142   2.432559   1.226825
    13  C    1.544348   2.700972   3.835341   3.444989   3.903125
    14  C    2.653180   3.113868   4.493291   3.259094   3.804599
    15  O    2.291727   3.641003   4.589636   4.171534   4.111951
    16  C    4.650829   5.919203   6.493396   6.181210   5.432889
    17  C    5.981560   7.183375   7.660071   7.335621   6.401847
    18  Cl   7.330233   8.614636   9.204573   8.777258   7.903965
    19  C    6.455708   7.491038   7.768132   7.540521   6.427625
    20  C    5.779692   6.636349   6.743026   6.654159   5.491284
    21  H    3.294355   3.782017   3.621698   4.014658   3.205428
    22  H    1.093202   2.131062   2.509570   3.571030   4.232087
    23  H    2.155871   1.090842   2.012385   2.147838   3.525583
    24  H    2.434859   1.913252   0.949240   2.685715   3.004349
    25  H    3.596283   2.177120   2.562809   1.090361   2.134673
    26  H    3.115633   2.182828   3.332058   1.088226   2.128075
    27  H    4.329508   3.978029   3.958987   3.236257   1.899799
    28  H    2.169881   3.335676   4.353563   4.315135   4.938741
    29  H    2.966528   3.211368   4.560081   2.869988   3.081072
    30  H    3.565703   4.184314   5.549436   4.318597   4.759373
    31  H    2.947098   2.955513   4.348188   3.111233   4.043037
    32  H    4.635490   5.999856   6.733508   6.346602   5.799031
    33  H    7.533222   8.546632   8.788603   8.546923   7.370845
    34  H    6.494157   7.194215   7.141634   7.131858   5.885886
                   11         12         13         14         15
    11  O    0.000000
    12  O    2.285922   0.000000
    13  C    4.713308   4.072934   0.000000
    14  C    4.945049   3.707318   1.535162   0.000000
    15  O    4.787573   4.033751   1.413704   2.393578   0.000000
    16  C    5.670669   5.072728   4.281528   5.060875   2.886132
    17  C    6.495808   5.949009   5.681071   6.389037   4.286654
    18  Cl   8.127166   7.326152   6.763160   7.355915   5.354318
    19  C    6.258901   6.043447   6.451291   7.181005   5.139021
    20  C    5.107470   5.289479   6.083349   6.862487   4.938472
    21  H    2.591489   3.695314   4.262521   5.164040   3.785989
    22  H    4.520368   4.919100   2.111968   3.400573   2.876561
    23  H    4.126198   4.355442   2.937765   3.143137   4.155226
    24  H    2.580873   4.116668   3.948832   4.740942   4.414578
    25  H    2.648127   3.113085   4.456621   4.231217   5.243741
    26  H    3.301836   2.535028   3.369892   2.708915   4.199016
    27  H    0.946822   2.368230   5.209543   5.443589   5.040662
    28  H    5.695370   5.156227   1.091131   2.152045   2.046241
    29  H    4.323377   2.747350   2.186604   1.089269   2.621294
    30  H    5.924849   4.471368   2.168872   1.090078   2.700322
    31  H    5.197282   4.133288   2.185524   1.089832   3.348934
    32  H    6.233166   5.402644   3.937968   4.659264   2.542134
    33  H    7.148256   6.938670   7.518528   8.212315   6.190797
    34  H    5.291803   5.751132   6.958238   7.718779   5.897655
                   16         17         18         19         20
    16  C    0.000000
    17  C    1.407021   0.000000
    18  Cl   2.715949   1.724840   0.000000
    19  C    2.437837   1.406832   2.716671   0.000000
    20  C    2.814822   2.436730   4.024199   1.407492   0.000000
    21  H    3.848459   4.604473   6.308371   4.338686   3.167960
    22  H    5.141831   6.464933   7.764953   6.961176   6.304210
    23  H    6.706187   8.027577   9.368908   8.442185   7.655304
    24  H    5.935910   7.012477   8.616683   7.004708   5.915083
    25  H    7.191873   8.302302   9.787737   8.402912   7.419842
    26  H    6.402721   7.590686   8.898538   7.939661   7.197981
    27  H    5.435334   6.083266   7.719277   5.696295   4.516739
    28  H    4.810817   6.212576   7.143813   7.091374   6.820161
    29  H    4.869300   6.097916   7.137588   6.768641   6.399741
    30  H    5.176061   6.460074   7.187959   7.412523   7.294462
    31  H    6.097914   7.438338   8.439068   8.178829   7.765129
    32  H    1.080423   2.150434   2.846305   3.409862   3.895129
    33  H    3.415883   2.159822   2.863868   1.080139   2.161176
    34  H    3.895253   3.413876   4.874743   2.158230   1.080438
                   21         22         23         24         25
    21  H    0.000000
    22  H    3.806818   0.000000
    23  H    4.845442   2.413004   0.000000
    24  H    2.757513   2.657888   2.781147   0.000000
    25  H    4.654638   4.300508   2.523933   2.945167   0.000000
    26  H    4.830231   4.008447   2.377961   3.691315   1.719887
    27  H    2.514919   5.163277   4.999626   3.334236   3.523397
    28  H    5.068839   2.202923   3.300795   4.567209   5.247444
    29  H    4.827282   3.924442   3.482512   4.688781   3.861605
    30  H    5.974825   4.192656   4.139380   5.779285   5.276034
    31  H    5.755484   3.560041   2.636750   4.800614   3.899776
    32  H    4.578852   5.072398   6.647167   6.304745   7.408001
    33  H    5.286591   8.028742   9.509402   7.999230   9.382487
    34  H    3.527029   7.007479   8.252365   6.257309   7.784339
                   26         27         28         29         30
    26  H    0.000000
    27  H    4.009452   0.000000
    28  H    4.203163   6.227260   0.000000
    29  H    2.274438   4.723882   3.066686   0.000000
    30  H    3.678523   6.343331   2.441182   1.749316   0.000000
    31  H    2.414346   5.828891   2.550748   1.773438   1.755913
    32  H    6.421648   6.114632   4.304509   4.627691   4.579232
    33  H    8.944677   6.511068   8.145823   7.769147   8.403101
    34  H    7.759894   4.596928   7.728476   7.198127   8.220936
                   31         32         33         34
    31  H    0.000000
    32  H    5.717631   0.000000
    33  H    9.220833   4.299208   0.000000
    34  H    8.568439   4.975532   2.484773   0.000000
 Stoichiometry    C13H14ClNO5
 Framework group  C1[X(C13H14ClNO5)]
 Deg. of freedom    96
 Full point group                 C1      NOp   1
 Largest Abelian subgroup         C1      NOp   1
 Largest concise Abelian subgroup C1      NOp   1
                         Standard orientation:                         
 ---------------------------------------------------------------------
 Center     Atomic      Atomic             Coordinates (Angstroms)
 Number     Number       Type             X           Y           Z
 ---------------------------------------------------------------------
      1          8           0        0.358556   -2.326903   -0.703295
      2          6           0        1.424430   -1.506732   -0.461638
      3          6           0        1.292991   -0.089914   -0.414183
      4          6           0       -0.002308    0.616535   -0.606365
      5          7           0       -1.039801    0.057709   -1.077693
      6          6           0       -2.113651    1.015243   -1.068722
      7          6           0       -3.459529    0.385639   -0.591834
      8          8           0       -3.770360   -0.626599   -1.531501
      9          6           0       -3.598080   -0.199483    0.848330
     10          6           0       -2.463275   -1.086636    1.375614
     11          8           0       -2.337593   -2.248566    0.679767
     12          8           0       -1.745230   -0.768620    2.318152
     13          6           0       -1.539547    2.273726   -0.381964
     14          6           0       -2.077768    2.679431    0.997327
     15          8           0       -0.177036    1.922477   -0.245033
     16          6           0        2.435068    0.698489   -0.152732
     17          6           0        3.688670    0.094575    0.055781
     18         17           0        5.073354    1.073185    0.372085
     19          6           0        3.813336   -1.305906    0.007973
     20          6           0        2.682649   -2.103773   -0.248915
     21          1           0       -0.387468   -1.788694   -0.963810
     22          1           0       -2.281002    1.309135   -2.108295
     23          1           0       -4.233714    1.146464   -0.700089
     24          1           0       -3.008750   -1.191349   -1.576944
     25          1           0       -4.523550   -0.772289    0.913794
     26          1           0       -3.733134    0.610836    1.562038
     27          1           0       -1.605088   -2.743555    1.018728
     28          1           0       -1.617822    3.127680   -1.056650
     29          1           0       -1.879482    1.915597    1.748159
     30          1           0       -1.589051    3.591621    1.339868
     31          1           0       -3.149158    2.876873    0.967806
     32          1           0        2.357146    1.775186   -0.108395
     33          1           0        4.776205   -1.768003    0.169371
     34          1           0        2.781842   -3.179078   -0.283929
 ---------------------------------------------------------------------
 Rotational constants (GHZ):      0.5668767      0.1868780      0.1636262
 Standard basis: 6-31+G(d,p) (6D, 7F)
 There are   454 symmetry adapted basis functions of A   symmetry.
 Integral buffers will be    131072 words long.
 Raffenetti 2 integral format.
 Two-electron integral symmetry is turned on.
   454 basis functions,   762 primitive gaussians,   454 cartesian basis functions
    78 alpha electrons       78 beta electrons
       nuclear repulsion energy      1750.8282013077 Hartrees.
 NAtoms=   34 NActive=   34 NUniq=   34 SFac= 1.00D+00 NAtFMM=   50 NAOKFM=F Big=F
 Using the following non-standard input for PCM:
 radii=UA0
 --- end of non-standard input.
 ------------------------------------------------------------------------------
 United Atom Topological Model (UA0  parameters set).
  Nord Group  Hybr  Charge Alpha Radius          Bonded to
    1   OH    *     0.00   1.10  1.850   C2   [s]
    2   C     *     0.00   1.10  1.925   O1   [s]  C3   [s]  C20  [s]
    3   C     *     0.00   1.10  1.925   C2   [s]  C4   [s]  C16  [s]
    4   C     *     0.00   1.10  1.925   C3   [s]  N5   [d]  O15  [s]
    5   N     *     0.00   1.10  1.830   C4   [d]  C6   [s]
    6   CH    *     0.00   1.10  2.125   N5   [s]  C7   [s]  C13  [s]
    7   CH    *     0.00   1.10  2.125   C6   [s]  O8   [s]  C9   [s]
    8   OH    *     0.00   1.10  1.850   C7   [s]
    9   CH2   *     0.00   1.10  2.325   C7   [s]  C10  [s]
   10   C     *     0.00   1.10  1.925   C9   [s]  O11  [s]  O12  [d]
   11   OH    *     0.00   1.10  1.850   C10  [s]
   12   O     *     0.00   1.10  1.750   C10  [d]
   13   CH    *     0.00   1.10  2.125   C6   [s]  C14  [s]  O15  [s]
   14   CH3   *     0.00   1.10  2.525   C13  [s]
   15   O     *     0.00   1.10  1.750   C4   [s]  C13  [s]
   16   CH    *     0.00   1.10  2.125   C3   [s]  C17  [s]
   17   C     *     0.00   1.10  1.925   C16  [s] Cl18  [s]  C19  [s]
   18  Cl     *     0.00   1.10  1.973   C17  [s]
   19   CH    *     0.00   1.10  2.125   C17  [s]  C20  [s]
   20   CH    *     0.00   1.10  2.125   C2   [s]  C19  [s]
 ------------------------------------------------------------------------------
 Polarizable Continuum Model (PCM)
 =================================
 Model                : PCM.
 Atomic radii         : UA0 (Simple United Atom Topological Model).
 Polarization charges : Total charges.
 Charge compensation  : None.
 Solution method      : Matrix inversion.
 Cavity type          : Scaled VdW (van der Waals Surface) (Alpha=1.100).
 Cavity algorithm     : GePol (No added spheres)
                        Default sphere list used, NSphG=   20.
                        Lebedev-Laikov grids with approx.  5.0 points / Ang**2.
                        Smoothing algorithm: Karplus/York (Gamma=1.0000).
                        Polarization charges: spherical gaussians, with
                                              point-specific exponents (IZeta= 3).
                        Self-potential: point-specific (ISelfS= 7).
                        Self-field    : sphere-specific E.n sum rule (ISelfD= 2).
 1st derivatives      : Analytical E(r).r(x)/FMM algorithm (CHGder, D1EAlg=3).
                        Cavity 1st derivative terms included.
 Solvent              : Methanol, Eps=  32.613000 Eps(inf)=   1.765709
 ------------------------------------------------------------------------------
 Spheres list:
 ISph  on   Nord    Re0     Alpha      Xe            Ye            Ze
    1   O      1    1.850   1.100      0.358556     -2.326903     -0.703295
    2   C      2    1.925   1.100      1.424430     -1.506732     -0.461638
    3   C      3    1.925   1.100      1.292991     -0.089914     -0.414183
    4   C      4    1.925   1.100     -0.002308      0.616535     -0.606365
    5   N      5    1.830   1.100     -1.039801      0.057709     -1.077693
    6   C      6    2.125   1.100     -2.113651      1.015243     -1.068722
    7   C      7    2.125   1.100     -3.459529      0.385639     -0.591834
    8   O      8    1.850   1.100     -3.770360     -0.626599     -1.531501
    9   C      9    2.325   1.100     -3.598080     -0.199483      0.848330
   10   C     10    1.925   1.100     -2.463275     -1.086636      1.375614
   11   O     11    1.850   1.100     -2.337593     -2.248566      0.679767
   12   O     12    1.750   1.100     -1.745230     -0.768620      2.318152
   13   C     13    2.125   1.100     -1.539547      2.273726     -0.381964
   14   C     14    2.525   1.100     -2.077768      2.679431      0.997327
   15   O     15    1.750   1.100     -0.177036      1.922477     -0.245033
   16   C     16    2.125   1.100      2.435068      0.698489     -0.152732
   17   C     17    1.925   1.100      3.688670      0.094575      0.055781
   18  Cl     18    1.973   1.100      5.073354      1.073185      0.372085
   19   C     19    2.125   1.100      3.813336     -1.305906      0.007973
   20   C     20    2.125   1.100      2.682649     -2.103773     -0.248915
 ------------------------------------------------------------------------------
 One-electron integrals computed using PRISM.
 NBasis=   454 RedAO= T  NBF=   454
 NBsUse=   453 1.00D-06 NBFU=   453
 Harris functional with IExCor= 1009 diagonalized for initial guess.
 ExpMin= 4.38D-02 ExpMax= 2.52D+04 ExpMxC= 3.78D+03 IAcc=3 IRadAn=         5 AccDes= 0.00D+00
 HarFok:  IExCor= 1009 AccDes= 0.00D+00 IRadAn=         5 IDoV= 1
 ScaDFX=  1.000000  1.000000  1.000000  1.000000
 FoFCou: FMM=F IPFlag=           0 FMFlag=      100000 FMFlg1=           0
         NFxFlg=           0 DoJE=T BraDBF=F KetDBF=T FulRan=T
         Omega=  0.000000  0.000000  1.000000  0.000000  0.000000 ICntrl=     500 IOpCl=  0
         NMat0=    1 NMatS0=    1 NMatT0=    0 NMatD0=    1 NMtDS0=    0 NMtDT0=    0
         I1Cent=           4 NGrid=           0.
 Petite list used in FoFCou.
 Initial guess orbital symmetries:
       Occupied  (A) (A) (A) (A) (A) (A) (A) (A) (A) (A) (A) (A)
                 (A) (A) (A) (A) (A) (A) (A) (A) (A) (A) (A) (A)
                 (A) (A) (A) (A) (A) (A) (A) (A) (A) (A) (A) (A)
                 (A) (A) (A) (A) (A) (A) (A) (A) (A) (A) (A) (A)
                 (A) (A) (A) (A) (A) (A) (A) (A) (A) (A) (A) (A)
                 (A) (A) (A) (A) (A) (A) (A) (A) (A) (A) (A) (A)
                 (A) (A) (A) (A) (A) (A)
       Virtual   (A) (A) (A) (A) (A) (A) (A) (A) (A) (A) (A) (A)
                 (A) (A) (A) (A) (A) (A) (A) (A) (A) (A) (A) (A)
                 (A) (A) (A) (A) (A) (A) (A) (A) (A) (A) (A) (A)
                 (A) (A) (A) (A) (A) (A) (A) (A) (A) (A) (A) (A)
                 (A) (A) (A) (A) (A) (A) (A) (A) (A) (A) (A) (A)
                 (A) (A) (A) (A) (A) (A) (A) (A) (A) (A) (A) (A)
                 (A) (A) (A) (A) (A) (A) (A) (A) (A) (A) (A) (A)
                 (A) (A) (A) (A) (A) (A) (A) (A) (A) (A) (A) (A)
                 (A) (A) (A) (A) (A) (A) (A) (A) (A) (A) (A) (A)
                 (A) (A) (A) (A) (A) (A) (A) (A) (A) (A) (A) (A)
                 (A) (A) (A) (A) (A) (A) (A) (A) (A) (A) (A) (A)
                 (A) (A) (A) (A) (A) (A) (A) (A) (A) (A) (A) (A)
                 (A) (A) (A) (A) (A) (A) (A) (A) (A) (A) (A) (A)
                 (A) (A) (A) (A) (A) (A) (A) (A) (A) (A) (A) (A)
                 (A) (A) (A) (A) (A) (A) (A) (A) (A) (A) (A) (A)
                 (A) (A) (A) (A) (A) (A) (A) (A) (A) (A) (A) (A)
                 (A) (A) (A) (A) (A) (A) (A) (A) (A) (A) (A) (A)
                 (A) (A) (A) (A) (A) (A) (A) (A) (A) (A) (A) (A)
                 (A) (A) (A) (A) (A) (A) (A) (A) (A) (A) (A) (A)
                 (A) (A) (A) (A) (A) (A) (A) (A) (A) (A) (A) (A)
                 (A) (A) (A) (A) (A) (A) (A) (A) (A) (A) (A) (A)
                 (A) (A) (A) (A) (A) (A) (A) (A) (A) (A) (A) (A)
                 (A) (A) (A) (A) (A) (A) (A) (A) (A) (A) (A) (A)
                 (A) (A) (A) (A) (A) (A) (A) (A) (A) (A) (A) (A)
                 (A) (A) (A) (A) (A) (A) (A) (A) (A) (A) (A) (A)
                 (A) (A) (A) (A) (A) (A) (A) (A) (A) (A) (A) (A)
                 (A) (A) (A) (A) (A) (A) (A) (A) (A) (A) (A) (A)
                 (A) (A) (A) (A) (A) (A) (A) (A) (A) (A) (A) (A)
                 (A) (A) (A) (A) (A) (A) (A) (A) (A) (A) (A) (A)
                 (A) (A) (A) (A) (A) (A) (A) (A) (A) (A) (A) (A)
                 (A) (A) (A) (A) (A) (A) (A) (A) (A) (A) (A) (A)
                 (A) (A) (A)
 The electronic state of the initial guess is 1-A.
 Requested convergence on RMS density matrix=1.00D-08 within 128 cycles.
 Requested convergence on MAX density matrix=1.00D-06.
 Requested convergence on             energy=1.00D-06.
 No special actions if energy rises.
 Error on total polarization charges =  0.01461
 SCF Done:  E(RM062X) =  -1394.55940198     A.U. after   16 cycles
             Convg  =    0.4934D-08             -V/T =  2.0067

 **********************************************************************

            Population analysis using the SCF density.

 **********************************************************************

 Orbital symmetries:
       Occupied  (A) (A) (A) (A) (A) (A) (A) (A) (A) (A) (A) (A)
                 (A) (A) (A) (A) (A) (A) (A) (A) (A) (A) (A) (A)
                 (A) (A) (A) (A) (A) (A) (A) (A) (A) (A) (A) (A)
                 (A) (A) (A) (A) (A) (A) (A) (A) (A) (A) (A) (A)
                 (A) (A) (A) (A) (A) (A) (A) (A) (A) (A) (A) (A)
                 (A) (A) (A) (A) (A) (A) (A) (A) (A) (A) (A) (A)
                 (A) (A) (A) (A) (A) (A)
       Virtual   (A) (A) (A) (A) (A) (A) (A) (A) (A) (A) (A) (A)
                 (A) (A) (A) (A) (A) (A) (A) (A) (A) (A) (A) (A)
                 (A) (A) (A) (A) (A) (A) (A) (A) (A) (A) (A) (A)
                 (A) (A) (A) (A) (A) (A) (A) (A) (A) (A) (A) (A)
                 (A) (A) (A) (A) (A) (A) (A) (A) (A) (A) (A) (A)
                 (A) (A) (A) (A) (A) (A) (A) (A) (A) (A) (A) (A)
                 (A) (A) (A) (A) (A) (A) (A) (A) (A) (A) (A) (A)
                 (A) (A) (A) (A) (A) (A) (A) (A) (A) (A) (A) (A)
                 (A) (A) (A) (A) (A) (A) (A) (A) (A) (A) (A) (A)
                 (A) (A) (A) (A) (A) (A) (A) (A) (A) (A) (A) (A)
                 (A) (A) (A) (A) (A) (A) (A) (A) (A) (A) (A) (A)
                 (A) (A) (A) (A) (A) (A) (A) (A) (A) (A) (A) (A)
                 (A) (A) (A) (A) (A) (A) (A) (A) (A) (A) (A) (A)
                 (A) (A) (A) (A) (A) (A) (A) (A) (A) (A) (A) (A)
                 (A) (A) (A) (A) (A) (A) (A) (A) (A) (A) (A) (A)
                 (A) (A) (A) (A) (A) (A) (A) (A) (A) (A) (A) (A)
                 (A) (A) (A) (A) (A) (A) (A) (A) (A) (A) (A) (A)
                 (A) (A) (A) (A) (A) (A) (A) (A) (A) (A) (A) (A)
                 (A) (A) (A) (A) (A) (A) (A) (A) (A) (A) (A) (A)
                 (A) (A) (A) (A) (A) (A) (A) (A) (A) (A) (A) (A)
                 (A) (A) (A) (A) (A) (A) (A) (A) (A) (A) (A) (A)
                 (A) (A) (A) (A) (A) (A) (A) (A) (A) (A) (A) (A)
                 (A) (A) (A) (A) (A) (A) (A) (A) (A) (A) (A) (A)
                 (A) (A) (A) (A) (A) (A) (A) (A) (A) (A) (A) (A)
                 (A) (A) (A) (A) (A) (A) (A) (A) (A) (A) (A) (A)
                 (A) (A) (A) (A) (A) (A) (A) (A) (A) (A) (A) (A)
                 (A) (A) (A) (A) (A) (A) (A) (A) (A) (A) (A) (A)
                 (A) (A) (A) (A) (A) (A) (A) (A) (A) (A) (A) (A)
                 (A) (A) (A) (A) (A) (A) (A) (A) (A) (A) (A) (A)
                 (A) (A) (A) (A) (A) (A) (A) (A) (A) (A) (A) (A)
                 (A) (A) (A) (A) (A) (A) (A) (A) (A) (A) (A) (A)
                 (A) (A) (A)
 The electronic state is 1-A.
 Alpha  occ. eigenvalues -- -102.68291 -19.70283 -19.69980 -19.68411 -19.65867
 Alpha  occ. eigenvalues --  -19.65207 -14.77492 -10.71133 -10.67797 -10.64947
 Alpha  occ. eigenvalues --  -10.62735 -10.62719 -10.62387 -10.60002 -10.59798
 Alpha  occ. eigenvalues --  -10.58903 -10.58655 -10.57647 -10.57338 -10.54928
 Alpha  occ. eigenvalues --   -9.82974  -7.55376  -7.54715  -7.54705  -1.24404
 Alpha  occ. eigenvalues --   -1.24199  -1.19914  -1.16492  -1.15162  -1.04672
 Alpha  occ. eigenvalues --   -1.00929  -0.95459  -0.92110  -0.88324  -0.86728
 Alpha  occ. eigenvalues --   -0.83646  -0.81495  -0.77373  -0.73627  -0.72345
 Alpha  occ. eigenvalues --   -0.70158  -0.68755  -0.67726  -0.63523  -0.61164
 Alpha  occ. eigenvalues --   -0.60994  -0.59426  -0.58154  -0.57346  -0.56373
 Alpha  occ. eigenvalues --   -0.55776  -0.54536  -0.53497  -0.52956  -0.51794
 Alpha  occ. eigenvalues --   -0.51206  -0.49995  -0.49458  -0.48992  -0.48161
 Alpha  occ. eigenvalues --   -0.47125  -0.46604  -0.46329  -0.45860  -0.45169
 Alpha  occ. eigenvalues --   -0.44512  -0.43940  -0.43163  -0.41277  -0.40041
 Alpha  occ. eigenvalues --   -0.39088  -0.38867  -0.37545  -0.37047  -0.35768
 Alpha  occ. eigenvalues --   -0.34268  -0.31755  -0.28762
 Alpha virt. eigenvalues --   -0.03301   0.00354   0.00819   0.01616   0.02061
 Alpha virt. eigenvalues --    0.02473   0.02820   0.03408   0.03738   0.04472
 Alpha virt. eigenvalues --    0.04534   0.04737   0.05380   0.05638   0.06194
 Alpha virt. eigenvalues --    0.06812   0.06953   0.07420   0.07860   0.08319
 Alpha virt. eigenvalues --    0.08484   0.08843   0.09357   0.10305   0.10460
 Alpha virt. eigenvalues --    0.10809   0.11114   0.11678   0.12573   0.12776
 Alpha virt. eigenvalues --    0.12997   0.13758   0.14200   0.14414   0.14767
 Alpha virt. eigenvalues --    0.15189   0.15415   0.15492   0.16146   0.16348
 Alpha virt. eigenvalues --    0.16837   0.16875   0.17311   0.17755   0.18366
 Alpha virt. eigenvalues --    0.18483   0.18856   0.18925   0.19681   0.20038
 Alpha virt. eigenvalues --    0.20316   0.20589   0.21297   0.21530   0.21898
 Alpha virt. eigenvalues --    0.22447   0.22585   0.22879   0.23219   0.23924
 Alpha virt. eigenvalues --    0.24162   0.24590   0.24955   0.25205   0.25383
 Alpha virt. eigenvalues --    0.25577   0.25855   0.26467   0.26889   0.27509
 Alpha virt. eigenvalues --    0.27778   0.27797   0.28307   0.28943   0.29503
 Alpha virt. eigenvalues --    0.30229   0.30356   0.30689   0.30936   0.31238
 Alpha virt. eigenvalues --    0.31783   0.32445   0.33358   0.33491   0.33935
 Alpha virt. eigenvalues --    0.34471   0.34833   0.35497   0.35942   0.36599
 Alpha virt. eigenvalues --    0.36899   0.37612   0.37945   0.38651   0.38878
 Alpha virt. eigenvalues --    0.39150   0.39781   0.40695   0.40930   0.41360
 Alpha virt. eigenvalues --    0.41686   0.42091   0.42795   0.43613   0.44122
 Alpha virt. eigenvalues --    0.44247   0.45052   0.46753   0.47221   0.48711
 Alpha virt. eigenvalues --    0.50095   0.50980   0.51461   0.52702   0.53800
 Alpha virt. eigenvalues --    0.55572   0.57506   0.59319   0.60582   0.64453
 Alpha virt. eigenvalues --    0.66424   0.68186   0.68753   0.70165   0.71206
 Alpha virt. eigenvalues --    0.71499   0.72926   0.73599   0.74023   0.74942
 Alpha virt. eigenvalues --    0.75566   0.76734   0.77710   0.77927   0.78777
 Alpha virt. eigenvalues --    0.80059   0.80344   0.81089   0.81842   0.82299
 Alpha virt. eigenvalues --    0.83410   0.84173   0.84999   0.85802   0.87020
 Alpha virt. eigenvalues --    0.87746   0.88681   0.89650   0.90620   0.91910
 Alpha virt. eigenvalues --    0.93075   0.93418   0.94451   0.95454   0.96926
 Alpha virt. eigenvalues --    0.97751   0.98552   0.98828   0.99813   1.02111
 Alpha virt. eigenvalues --    1.02705   1.04888   1.06084   1.06652   1.06811
 Alpha virt. eigenvalues --    1.08281   1.11006   1.11450   1.11593   1.12418
 Alpha virt. eigenvalues --    1.12929   1.13563   1.15030   1.15209   1.16096
 Alpha virt. eigenvalues --    1.16995   1.18029   1.18730   1.19845   1.20841
 Alpha virt. eigenvalues --    1.22053   1.23964   1.23992   1.26058   1.27120
 Alpha virt. eigenvalues --    1.28061   1.28281   1.28615   1.30261   1.31341
 Alpha virt. eigenvalues --    1.32865   1.34431   1.34640   1.35817   1.37441
 Alpha virt. eigenvalues --    1.37965   1.38272   1.39677   1.39773   1.40362
 Alpha virt. eigenvalues --    1.41075   1.42123   1.42657   1.43049   1.43304
 Alpha virt. eigenvalues --    1.44188   1.44711   1.46843   1.48727   1.49301
 Alpha virt. eigenvalues --    1.50019   1.51406   1.52147   1.52698   1.53764
 Alpha virt. eigenvalues --    1.55023   1.56922   1.57941   1.58769   1.59687
 Alpha virt. eigenvalues --    1.61407   1.63100   1.65001   1.65375   1.68812
 Alpha virt. eigenvalues --    1.70037   1.72341   1.72969   1.74954   1.75922
 Alpha virt. eigenvalues --    1.76999   1.78907   1.79826   1.81291   1.81551
 Alpha virt. eigenvalues --    1.81865   1.83101   1.84178   1.85149   1.88273
 Alpha virt. eigenvalues --    1.88781   1.90190   1.90819   1.91993   1.93580
 Alpha virt. eigenvalues --    1.94639   1.95607   1.96907   1.97129   1.98760
 Alpha virt. eigenvalues --    1.99456   2.00145   2.00919   2.02527   2.03563
 Alpha virt. eigenvalues --    2.05837   2.06918   2.07697   2.09143   2.09374
 Alpha virt. eigenvalues --    2.11004   2.11357   2.12252   2.14951   2.16315
 Alpha virt. eigenvalues --    2.16924   2.18306   2.21012   2.21577   2.22680
 Alpha virt. eigenvalues --    2.23194   2.25324   2.26252   2.28159   2.28976
 Alpha virt. eigenvalues --    2.30830   2.33190   2.34462   2.37079   2.37673
 Alpha virt. eigenvalues --    2.38775   2.39209   2.41749   2.42268   2.43356
 Alpha virt. eigenvalues --    2.43701   2.45805   2.47316   2.47759   2.48068
 Alpha virt. eigenvalues --    2.49280   2.49985   2.51711   2.53093   2.54131
 Alpha virt. eigenvalues --    2.56023   2.57426   2.57964   2.58965   2.59742
 Alpha virt. eigenvalues --    2.60599   2.61554   2.62132   2.64007   2.65454
 Alpha virt. eigenvalues --    2.67218   2.68855   2.69585   2.70285   2.71233
 Alpha virt. eigenvalues --    2.73177   2.73504   2.74930   2.75199   2.76407
 Alpha virt. eigenvalues --    2.78055   2.78384   2.80265   2.81992   2.84530
 Alpha virt. eigenvalues --    2.85051   2.86797   2.89898   2.91377   2.92612
 Alpha virt. eigenvalues --    2.93517   2.96394   2.99217   3.01404   3.02820
 Alpha virt. eigenvalues --    3.04480   3.07304   3.08091   3.09181   3.10956
 Alpha virt. eigenvalues --    3.13779   3.14650   3.21497   3.22388   3.25122
 Alpha virt. eigenvalues --    3.27313   3.32464   3.37080   3.37603   3.39038
 Alpha virt. eigenvalues --    3.43801   3.46196   3.47359   3.49129   3.52595
 Alpha virt. eigenvalues --    3.53023   3.59423   3.65422   3.67488   3.76026
 Alpha virt. eigenvalues --    4.27623   4.28371   4.31452   4.34650   4.36497
 Alpha virt. eigenvalues --    4.40456   4.41999   4.45616   4.48231   4.51073
 Alpha virt. eigenvalues --    4.52383   4.57719   4.59264   4.61224   4.70098
 Alpha virt. eigenvalues --    4.76623   4.78075   4.78837   4.89338   5.02141
          Condensed to atoms (all electrons):
              1          2          3          4          5          6
     1  O    8.442443   0.335173   0.218387  -0.040235  -0.009916  -0.038281
     2  C    0.335173  20.575719  -6.110147   0.687215   0.137122  -0.030664
     3  C    0.218387  -6.110147  14.953635  -1.591928  -0.651851   0.587776
     4  C   -0.040235   0.687215  -1.591928  10.153288   0.487294  -0.962305
     5  N   -0.009916   0.137122  -0.651851   0.487294   7.592466  -0.852257
     6  C   -0.038281  -0.030664   0.587776  -0.962305  -0.852257  11.906149
     7  C    0.014169  -0.248566   0.315123  -0.654375   0.158347  -1.624815
     8  O   -0.001089   0.013404  -0.013508  -0.019198   0.011283  -0.164128
     9  C   -0.004053   0.144563  -0.218828   0.094996   0.021313   0.236436
    10  C    0.010177  -0.157913   0.214367  -0.276452  -0.023544  -0.110946
    11  O    0.028033  -0.054124   0.034977  -0.037007   0.003815  -0.051259
    12  O   -0.008225   0.014921   0.008548  -0.045319  -0.005460   0.054622
    13  C    0.012590   0.185203  -0.472517   0.224479   0.660823  -3.005951
    14  C    0.000809  -0.038479  -0.028397   0.003820   0.013454  -0.139654
    15  O   -0.008344  -0.004205  -0.061193   0.175082  -0.170380   0.034536
    16  C    0.113831  -3.687558   1.414215  -3.059544  -0.173469  -0.167204
    17  C   -0.029991  -1.202088  -1.668333   0.550704   0.047568  -0.157983
    18  Cl  -0.000119  -0.025815   0.001740   0.007658  -0.000234  -0.000971
    19  C    0.037065   2.027168  -0.842168  -0.049606   0.012786  -0.046754
    20  C   -0.694006  -6.332814   0.047797  -0.096569   0.077235   0.074091
    21  H    0.170959   0.056875  -0.151756  -0.019800   0.069668   0.025215
    22  H    0.000307   0.009899  -0.047146   0.119391  -0.022589   0.195894
    23  H   -0.000020  -0.000015   0.000441  -0.030383   0.011128  -0.008532
    24  H   -0.002021  -0.003639   0.005401  -0.043163   0.031515  -0.000747
    25  H    0.000104  -0.000656   0.000781   0.003232  -0.003264   0.052573
    26  H   -0.000066   0.002667  -0.002420  -0.003021  -0.008030   0.031920
    27  H   -0.001193  -0.017007   0.010942   0.002355  -0.002604   0.001776
    28  H   -0.000010  -0.003349   0.001741   0.035880  -0.010840   0.037812
    29  H   -0.000009  -0.002641  -0.007395   0.015755  -0.005071   0.062376
    30  H   -0.000003   0.001411   0.003341  -0.001010  -0.000613   0.018739
    31  H    0.000002  -0.000793   0.002985  -0.010027  -0.005862   0.037486
    32  H   -0.000402   0.024671   0.002516   0.083510   0.001315   0.008325
    33  H   -0.000425  -0.035709   0.005547  -0.009344   0.000024  -0.000066
    34  H   -0.003218   0.036743   0.010915   0.001365   0.000391   0.000131
              7          8          9         10         11         12
     1  O    0.014169  -0.001089  -0.004053   0.010177   0.028033  -0.008225
     2  C   -0.248566   0.013404   0.144563  -0.157913  -0.054124   0.014921
     3  C    0.315123  -0.013508  -0.218828   0.214367   0.034977   0.008548
     4  C   -0.654375  -0.019198   0.094996  -0.276452  -0.037007  -0.045319
     5  N    0.158347   0.011283   0.021313  -0.023544   0.003815  -0.005460
     6  C   -1.624815  -0.164128   0.236436  -0.110946  -0.051259   0.054622
     7  C    7.862229   0.454368  -0.690330  -0.109031   0.131493  -0.034220
     8  O    0.454368   8.199528  -0.214699   0.009563   0.022426   0.000104
     9  C   -0.690330  -0.214699   7.255813  -0.586424  -0.369733  -0.191042
    10  C   -0.109031   0.009563  -0.586424   5.738890   0.393005   0.718481
    11  O    0.131493   0.022426  -0.369733   0.393005   8.253974  -0.156534
    12  O   -0.034220   0.000104  -0.191042   0.718481  -0.156534   8.041449
    13  C    0.175001   0.033095   0.107328   0.025802  -0.018801  -0.010564
    14  C   -0.074786  -0.014277  -0.045759  -0.005162  -0.004744  -0.014423
    15  O    0.029068  -0.002552   0.002410  -0.009500   0.002342  -0.001513
    16  C    0.000054  -0.010850  -0.101372   0.112648  -0.012894  -0.009168
    17  C    0.000083  -0.000654   0.006079  -0.009146   0.001867  -0.003670
    18  Cl   0.000207  -0.000003  -0.000098   0.000064   0.000010  -0.000039
    19  C   -0.018239   0.000049   0.002368   0.006056  -0.007638   0.001038
    20  C    0.033837   0.001892   0.015416  -0.057185   0.027494   0.015602
    21  H    0.002975  -0.000591   0.001578  -0.006027   0.003286  -0.000010
    22  H   -0.026834   0.002087  -0.002879  -0.006360  -0.000587  -0.000115
    23  H    0.418304  -0.052441  -0.051618   0.003540   0.000964   0.000008
    24  H    0.010234   0.259195  -0.005724   0.010362   0.003034   0.000308
    25  H   -0.055048  -0.005706   0.377454  -0.039295   0.002274   0.003639
    26  H    0.010714   0.008408   0.345410  -0.032705   0.010808  -0.005468
    27  H   -0.004130  -0.000336   0.034383  -0.008532   0.243760   0.002364
    28  H   -0.036107  -0.000511   0.002609   0.002294   0.000008  -0.000126
    29  H   -0.069011  -0.000363   0.013027   0.009938  -0.000361  -0.003588
    30  H   -0.000821   0.000045   0.001919  -0.000597   0.000022   0.000357
    31  H    0.026161  -0.000126  -0.018200   0.001840   0.000057   0.000153
    32  H    0.000458   0.000000  -0.000015   0.000068  -0.000001   0.000029
    33  H   -0.000008   0.000000   0.000000  -0.000022   0.000001   0.000000
    34  H   -0.000003   0.000000  -0.000008   0.000077  -0.000031   0.000002
             13         14         15         16         17         18
     1  O    0.012590   0.000809  -0.008344   0.113831  -0.029991  -0.000119
     2  C    0.185203  -0.038479  -0.004205  -3.687558  -1.202088  -0.025815
     3  C   -0.472517  -0.028397  -0.061193   1.414215  -1.668333   0.001740
     4  C    0.224479   0.003820   0.175082  -3.059544   0.550704   0.007658
     5  N    0.660823   0.013454  -0.170380  -0.173469   0.047568  -0.000234
     6  C   -3.005951  -0.139654   0.034536  -0.167204  -0.157983  -0.000971
     7  C    0.175001  -0.074786   0.029068   0.000054   0.000083   0.000207
     8  O    0.033095  -0.014277  -0.002552  -0.010850  -0.000654  -0.000003
     9  C    0.107328  -0.045759   0.002410  -0.101372   0.006079  -0.000098
    10  C    0.025802  -0.005162  -0.009500   0.112648  -0.009146   0.000064
    11  O   -0.018801  -0.004744   0.002342  -0.012894   0.001867   0.000010
    12  O   -0.010564  -0.014423  -0.001513  -0.009168  -0.003670  -0.000039
    13  C    8.257139   0.034862  -0.078840  -0.441286   0.098603  -0.000150
    14  C    0.034862   5.677689  -0.092279   0.073016   0.024243   0.000297
    15  O   -0.078840  -0.092279   8.411289  -0.003137   0.056435  -0.000746
    16  C   -0.441286   0.073016  -0.003137  17.646395  -1.974176  -0.120332
    17  C    0.098603   0.024243   0.056435  -1.974176   8.985263  -0.085477
    18  Cl  -0.000150   0.000297  -0.000746  -0.120332  -0.085477  17.029276
    19  C    0.008627   0.006026  -0.005686  -2.030459   0.560184  -0.121919
    20  C   -0.013473  -0.019046   0.032902  -1.286535   0.855913   0.090486
    21  H   -0.012777   0.000086   0.003012  -0.042220   0.004848  -0.000013
    22  H    0.055558   0.007547   0.003002   0.002996   0.001502   0.000002
    23  H    0.012580  -0.017705  -0.000381  -0.001235  -0.000018   0.000000
    24  H   -0.005704  -0.001414   0.000504  -0.002424   0.000124   0.000000
    25  H   -0.004482   0.005371   0.000013   0.000166  -0.000011   0.000000
    26  H   -0.034062  -0.005743  -0.000016  -0.000912  -0.000042   0.000000
    27  H    0.001668  -0.000130   0.000091   0.000925   0.000319   0.000001
    28  H    0.335686  -0.040282  -0.044281   0.016357   0.000661  -0.000004
    29  H   -0.120105   0.447074   0.000755   0.019811   0.001599   0.000007
    30  H   -0.041220   0.400164  -0.005025  -0.010688  -0.000719  -0.000003
    31  H   -0.094915   0.406714   0.009135  -0.001357  -0.000183   0.000000
    32  H    0.002511  -0.000862   0.004572   0.195639  -0.020667  -0.003421
    33  H   -0.000036  -0.000002   0.000006   0.107864   0.082406  -0.007425
    34  H    0.000011   0.000003   0.000011  -0.000649  -0.003149   0.000938
             19         20         21         22         23         24
     1  O    0.037065  -0.694006   0.170959   0.000307  -0.000020  -0.002021
     2  C    2.027168  -6.332814   0.056875   0.009899  -0.000015  -0.003639
     3  C   -0.842168   0.047797  -0.151756  -0.047146   0.000441   0.005401
     4  C   -0.049606  -0.096569  -0.019800   0.119391  -0.030383  -0.043163
     5  N    0.012786   0.077235   0.069668  -0.022589   0.011128   0.031515
     6  C   -0.046754   0.074091   0.025215   0.195894  -0.008532  -0.000747
     7  C   -0.018239   0.033837   0.002975  -0.026834   0.418304   0.010234
     8  O    0.000049   0.001892  -0.000591   0.002087  -0.052441   0.259195
     9  C    0.002368   0.015416   0.001578  -0.002879  -0.051618  -0.005724
    10  C    0.006056  -0.057185  -0.006027  -0.006360   0.003540   0.010362
    11  O   -0.007638   0.027494   0.003286  -0.000587   0.000964   0.003034
    12  O    0.001038   0.015602  -0.000010  -0.000115   0.000008   0.000308
    13  C    0.008627  -0.013473  -0.012777   0.055558   0.012580  -0.005704
    14  C    0.006026  -0.019046   0.000086   0.007547  -0.017705  -0.001414
    15  O   -0.005686   0.032902   0.003012   0.003002  -0.000381   0.000504
    16  C   -2.030459  -1.286535  -0.042220   0.002996  -0.001235  -0.002424
    17  C    0.560184   0.855913   0.004848   0.001502  -0.000018   0.000124
    18  Cl  -0.121919   0.090486  -0.000013   0.000002   0.000000   0.000000
    19  C    8.070601  -1.430405  -0.008434   0.000486  -0.000028  -0.000288
    20  C   -1.430405  13.909446   0.152611  -0.002074   0.000232   0.002144
    21  H   -0.008434   0.152611   0.311678  -0.000177   0.000002   0.000405
    22  H    0.000486  -0.002074  -0.000177   0.522228  -0.005448  -0.002559
    23  H   -0.000028   0.000232   0.000002  -0.005448   0.531110   0.006388
    24  H   -0.000288   0.002144   0.000405  -0.002559   0.006388   0.330128
    25  H    0.000006  -0.000084  -0.000005  -0.000079  -0.003827  -0.000029
    26  H    0.000009   0.000167   0.000000  -0.000023  -0.002945  -0.000142
    27  H   -0.000834   0.001944  -0.000921   0.000001   0.000007   0.000233
    28  H    0.000199  -0.000519  -0.000003  -0.008682   0.000220  -0.000003
    29  H    0.000508  -0.000832  -0.000003  -0.000073   0.000200   0.000006
    30  H   -0.000147   0.000264   0.000000  -0.000103   0.000017   0.000000
    31  H   -0.000021  -0.000045   0.000000  -0.000039  -0.000405  -0.000002
    32  H    0.033363  -0.008243  -0.000009   0.000000   0.000000   0.000000
    33  H    0.196041  -0.008914   0.000003   0.000000   0.000000   0.000000
    34  H   -0.005869   0.290763   0.000065   0.000000   0.000000   0.000000
             25         26         27         28         29         30
     1  O    0.000104  -0.000066  -0.001193  -0.000010  -0.000009  -0.000003
     2  C   -0.000656   0.002667  -0.017007  -0.003349  -0.002641   0.001411
     3  C    0.000781  -0.002420   0.010942   0.001741  -0.007395   0.003341
     4  C    0.003232  -0.003021   0.002355   0.035880   0.015755  -0.001010
     5  N   -0.003264  -0.008030  -0.002604  -0.010840  -0.005071  -0.000613
     6  C    0.052573   0.031920   0.001776   0.037812   0.062376   0.018739
     7  C   -0.055048   0.010714  -0.004130  -0.036107  -0.069011  -0.000821
     8  O   -0.005706   0.008408  -0.000336  -0.000511  -0.000363   0.000045
     9  C    0.377454   0.345410   0.034383   0.002609   0.013027   0.001919
    10  C   -0.039295  -0.032705  -0.008532   0.002294   0.009938  -0.000597
    11  O    0.002274   0.010808   0.243760   0.000008  -0.000361   0.000022
    12  O    0.003639  -0.005468   0.002364  -0.000126  -0.003588   0.000357
    13  C   -0.004482  -0.034062   0.001668   0.335686  -0.120105  -0.041220
    14  C    0.005371  -0.005743  -0.000130  -0.040282   0.447074   0.400164
    15  O    0.000013  -0.000016   0.000091  -0.044281   0.000755  -0.005025
    16  C    0.000166  -0.000912   0.000925   0.016357   0.019811  -0.010688
    17  C   -0.000011  -0.000042   0.000319   0.000661   0.001599  -0.000719
    18  Cl   0.000000   0.000000   0.000001  -0.000004   0.000007  -0.000003
    19  C    0.000006   0.000009  -0.000834   0.000199   0.000508  -0.000147
    20  C   -0.000084   0.000167   0.001944  -0.000519  -0.000832   0.000264
    21  H   -0.000005   0.000000  -0.000921  -0.000003  -0.000003   0.000000
    22  H   -0.000079  -0.000023   0.000001  -0.008682  -0.000073  -0.000103
    23  H   -0.003827  -0.002945   0.000007   0.000220   0.000200   0.000017
    24  H   -0.000029  -0.000142   0.000233  -0.000003   0.000006   0.000000
    25  H    0.477732  -0.026620  -0.000057   0.000002   0.000154  -0.000002
    26  H   -0.026620   0.523203  -0.000220   0.000013  -0.001256   0.000197
    27  H   -0.000057  -0.000220   0.294330   0.000000   0.000004   0.000000
    28  H    0.000002   0.000013   0.000000   0.521139   0.003716  -0.004663
    29  H    0.000154  -0.001256   0.000004   0.003716   0.498051  -0.026063
    30  H   -0.000002   0.000197   0.000000  -0.004663  -0.026063   0.504417
    31  H    0.000009   0.000580   0.000000  -0.000348  -0.026228  -0.022236
    32  H    0.000000   0.000000   0.000000  -0.000003  -0.000003  -0.000002
    33  H    0.000000   0.000000   0.000000   0.000000   0.000000   0.000000
    34  H    0.000000   0.000000   0.000002   0.000000   0.000000   0.000000
             31         32         33         34
     1  O    0.000002  -0.000402  -0.000425  -0.003218
     2  C   -0.000793   0.024671  -0.035709   0.036743
     3  C    0.002985   0.002516   0.005547   0.010915
     4  C   -0.010027   0.083510  -0.009344   0.001365
     5  N   -0.005862   0.001315   0.000024   0.000391
     6  C    0.037486   0.008325  -0.000066   0.000131
     7  C    0.026161   0.000458  -0.000008  -0.000003
     8  O   -0.000126   0.000000   0.000000   0.000000
     9  C   -0.018200  -0.000015   0.000000  -0.000008
    10  C    0.001840   0.000068  -0.000022   0.000077
    11  O    0.000057  -0.000001   0.000001  -0.000031
    12  O    0.000153   0.000029   0.000000   0.000002
    13  C   -0.094915   0.002511  -0.000036   0.000011
    14  C    0.406714  -0.000862  -0.000002   0.000003
    15  O    0.009135   0.004572   0.000006   0.000011
    16  C   -0.001357   0.195639   0.107864  -0.000649
    17  C   -0.000183  -0.020667   0.082406  -0.003149
    18  Cl   0.000000  -0.003421  -0.007425   0.000938
    19  C   -0.000021   0.033363   0.196041  -0.005869
    20  C   -0.000045  -0.008243  -0.008914   0.290763
    21  H    0.000000  -0.000009   0.000003   0.000065
    22  H   -0.000039   0.000000   0.000000   0.000000
    23  H   -0.000405   0.000000   0.000000   0.000000
    24  H   -0.000002   0.000000   0.000000   0.000000
    25  H    0.000009   0.000000   0.000000   0.000000
    26  H    0.000580   0.000000   0.000000   0.000000
    27  H    0.000000   0.000000   0.000000   0.000002
    28  H   -0.000348  -0.000003   0.000000   0.000000
    29  H   -0.026228  -0.000003   0.000000   0.000000
    30  H   -0.022236  -0.000002   0.000000   0.000000
    31  H    0.519776   0.000000   0.000000   0.000000
    32  H    0.000000   0.461845  -0.000128   0.000008
    33  H    0.000000  -0.000128   0.466834  -0.003626
    34  H    0.000000   0.000008  -0.003626   0.469839
 Mulliken atomic charges:
              1
     1  O   -0.542420
     2  C   -0.296574
     3  C    0.026411
     4  C    0.303263
     5  N   -0.391565
     6  C   -0.003338
     7  C    0.003499
     8  O   -0.514417
     9  C   -0.162317
    10  C    0.181669
    11  O   -0.449937
    12  O   -0.372144
    13  C    0.123319
    14  C   -0.558032
    15  O   -0.277087
    16  C   -0.566449
    17  C   -0.122096
    18  Cl   0.236084
    19  C   -0.394087
    20  C    0.320508
    21  H    0.439478
    22  H    0.204866
    23  H    0.189860
    24  H    0.407874
    25  H    0.215658
    26  H    0.189594
    27  H    0.440858
    28  H    0.191394
    29  H    0.190022
    30  H    0.183020
    31  H    0.175890
    32  H    0.214925
    33  H    0.206981
    34  H    0.205289
 Sum of Mulliken atomic charges =   0.00000
 Mulliken charges with hydrogens summed into heavy atoms:
              1
     1  O   -0.102942
     2  C   -0.296574
     3  C    0.026411
     4  C    0.303263
     5  N   -0.391565
     6  C    0.201528
     7  C    0.193359
     8  O   -0.106542
     9  C    0.242934
    10  C    0.181669
    11  O   -0.009079
    12  O   -0.372144
    13  C    0.314712
    14  C   -0.009099
    15  O   -0.277087
    16  C   -0.351525
    17  C   -0.122096
    18  Cl   0.236084
    19  C   -0.187106
    20  C    0.525797
 Sum of Mulliken charges with hydrogens summed into heavy atoms =   0.00000
 Electronic spatial extent (au):  <R**2>=           6573.6486
 Charge=              0.0000 electrons
 Dipole moment (field-independent basis, Debye):
    X=             -1.8527    Y=              1.5461    Z=             -0.8212  Tot=              2.5490
 Quadrupole moment (field-independent basis, Debye-Ang):
   XX=           -123.7841   YY=           -111.9653   ZZ=           -134.9207
   XY=            -16.8345   XZ=             -4.9699   YZ=             -4.5338
 Traceless Quadrupole moment (field-independent basis, Debye-Ang):
   XX=             -0.2274   YY=             11.5914   ZZ=            -11.3640
   XY=            -16.8345   XZ=             -4.9699   YZ=             -4.5338
 Octapole moment (field-independent basis, Debye-Ang**2):
  XXX=            -36.2531  YYY=             -6.0533  ZZZ=            -15.6035  XYY=            -11.5518
  XXY=             -2.1195  XXZ=             37.4122  XZZ=              1.4671  YZZ=              7.1091
  YYZ=              7.0393  XYZ=              7.5280
 Hexadecapole moment (field-independent basis, Debye-Ang**3):
 XXXX=          -6246.7034 YYYY=          -1609.3281 ZZZZ=           -827.1200 XXXY=           -235.4629
 XXXZ=           -164.7770 YYYX=            -26.6640 YYYZ=            -42.1880 ZZZX=             23.4473
 ZZZY=             -2.0072 XXYY=          -1208.4076 XXZZ=          -1235.7210 YYZZ=           -397.0475
 XXYZ=            -39.9763 YYXZ=              7.1235 ZZXY=              9.1206
 N-N= 1.750828201308D+03 E-N=-6.774073602803D+03  KE= 1.385296405909D+03
 D1PCM: PCM CHGder 1st derivatives, ID1Alg=3 FixD1E=F DoIter=F DoCFld=F I1PDM=0.
 Calling FoFJK, ICntrl=      2127 FMM=F ISym2X=0 I1Cent= 0 IOpClX= 0 NMat=1 NMatS=1 NMatT=0.
 ***** Axes restored to original set *****
 -------------------------------------------------------------------
 Center     Atomic                   Forces (Hartrees/Bohr)
 Number     Number              X              Y              Z
 -------------------------------------------------------------------
      1        8          -0.029797180    0.003234757   -0.001166588
      2        6           0.007593420   -0.001841394    0.000886294
      3        6          -0.007526748    0.017865535    0.000874590
      4        6           0.002073422    0.001466874   -0.004453627
      5        7          -0.004159904   -0.022691654   -0.007680972
      6        6           0.021570473    0.003974812   -0.003632783
      7        6          -0.008004393   -0.008725533    0.001505029
      8        8           0.020271905    0.009574310   -0.001673037
      9        6          -0.011056630    0.007142096   -0.001173318
     10        6          -0.005400181    0.010414850    0.003073995
     11        8           0.034035922    0.028313013    0.001871457
     12        8           0.014306862   -0.019966971    0.014901011
     13        6           0.014839783    0.002016292   -0.017279702
     14        6          -0.002861858   -0.001895012    0.003619216
     15        8          -0.045500700    0.001332928    0.004494343
     16        6          -0.013529852   -0.013485149   -0.002808636
     17        6           0.021791058   -0.016175270   -0.002891333
     18       17          -0.005794593    0.006306774    0.001267062
     19        6           0.018193623    0.000965957   -0.000746214
     20        6           0.000807600    0.020454082    0.003041366
     21        1           0.022921936    0.007610201    0.003686433
     22        1           0.006761278   -0.006223046    0.000713121
     23        1           0.002503183    0.001919021   -0.001236061
     24        1          -0.019561138   -0.014971372    0.003686307
     25        1           0.002606240   -0.005849536    0.006247074
     26        1          -0.004741408    0.003205459   -0.000602957
     27        1          -0.031721050   -0.009562919   -0.009804265
     28        1          -0.002076319    0.001075434    0.002066101
     29        1          -0.001287015   -0.004668429   -0.000875218
     30        1          -0.001040675    0.001976341    0.003014062
     31        1           0.003338900   -0.001087408    0.001378379
     32        1           0.003322495    0.003404341    0.000365176
     33        1          -0.004112500   -0.001258822   -0.000050320
     34        1           0.001234042   -0.003850561   -0.000615986
 -------------------------------------------------------------------
 Cartesian Forces:  Max     0.045500700 RMS     0.011522705

 GradGradGradGradGradGradGradGradGradGradGradGradGradGradGradGradGradGrad
 Berny optimization.
 Internal  Forces:  Max     0.034542239 RMS     0.007736106
 Search for a local minimum.
 Step number   1 out of a maximum of  191
 All quantities printed in internal units (Hartrees-Bohrs-Radians)
 Mixed Optimization -- RFO/linear search
 Second derivative matrix not updated -- first step.
 ITU=  0
     Eigenvalues ---    0.00230   0.00230   0.00301   0.00318   0.00644
     Eigenvalues ---    0.00801   0.00926   0.01484   0.01568   0.01700
     Eigenvalues ---    0.01848   0.01926   0.01960   0.01970   0.01980
     Eigenvalues ---    0.01993   0.01994   0.01997   0.02136   0.02219
     Eigenvalues ---    0.02379   0.03298   0.03336   0.03447   0.03778
     Eigenvalues ---    0.04253   0.04553   0.05100   0.05101   0.05309
     Eigenvalues ---    0.05572   0.08273   0.08395   0.08441   0.10212
     Eigenvalues ---    0.13382   0.14216   0.16000   0.16000   0.16000
     Eigenvalues ---    0.16000   0.16000   0.16000   0.16000   0.16000
     Eigenvalues ---    0.16000   0.17565   0.18354   0.19873   0.19903
     Eigenvalues ---    0.21955   0.22371   0.23490   0.24157   0.24600
     Eigenvalues ---    0.24990   0.24996   0.24999   0.25000   0.25000
     Eigenvalues ---    0.25000   0.26765   0.26776   0.27218   0.28952
     Eigenvalues ---    0.29066   0.33059   0.33682   0.34445   0.34682
     Eigenvalues ---    0.34716   0.34771   0.34804   0.34832   0.34897
     Eigenvalues ---    0.35019   0.35942   0.35943   0.35978   0.37967
     Eigenvalues ---    0.39798   0.40439   0.42112   0.43065   0.43114
     Eigenvalues ---    0.43998   0.44308   0.44464   0.48695   0.51666
     Eigenvalues ---    0.52912   0.56325   0.57854   0.58407   0.71527
     Eigenvalues ---    0.92422
 RFO step:  Lambda=-3.04204610D-02 EMin= 2.30000000D-03
 Linear search not attempted -- first point.
 Iteration  1 RMS(Cart)=  0.13791510 RMS(Int)=  0.00372865
 Iteration  2 RMS(Cart)=  0.00799868 RMS(Int)=  0.00029778
 Iteration  3 RMS(Cart)=  0.00002859 RMS(Int)=  0.00029725
 Iteration  4 RMS(Cart)=  0.00000001 RMS(Int)=  0.00029725
 Variable       Old X    -DE/DX   Delta X   Delta X   Delta X     New X
                                 (Linear)    (Quad)   (Total)
    R1        2.58220  -0.01291   0.00000  -0.02359  -0.02359   2.55861
    R2        1.80673   0.02439   0.00000   0.04109   0.04109   1.84782
    R3        2.69039  -0.01896   0.00000  -0.04236  -0.04234   2.64805
    R4        2.66232  -0.01465   0.00000  -0.03123  -0.03124   2.63108
    R5        2.81169  -0.02113   0.00000  -0.05755  -0.05755   2.75415
    R6        2.66865  -0.01298   0.00000  -0.02775  -0.02772   2.64093
    R7        2.39841   0.01464   0.00000   0.01886   0.01899   2.41740
    R8        2.58179  -0.01360   0.00000  -0.02655  -0.02654   2.55525
    R9        2.71891   0.01036   0.00000   0.02714   0.02724   2.74615
   R10        2.94895  -0.01501   0.00000  -0.05034  -0.05034   2.89861
   R11        2.91840   0.01065   0.00000   0.03518   0.03506   2.95346
   R12        2.06585   0.00330   0.00000   0.00881   0.00881   2.07466
   R13        2.67529   0.00576   0.00000   0.01249   0.01249   2.68778
[...]
 ,-0.11684642,-0.09726779,0.00081492,0.00026615,-0.00131159,-0.00002190
 ,0.00003125,-0.00000226,0.00002008,0.00003930,-0.00000761,0.00001257,-
 0.00001216,0.00000186,0.00002200,-0.00002492,0.00001180,-0.00001121,-0
 .00001081,-0.00002489,-0.00008461,-0.00007601,0.00003397,0.00001453,0.
 00012665,-0.00019007,-0.00005704,-0.00003702,0.00001926,-0.00000598,-0
 .00006569,0.00005345,-0.00016172,-0.00028544,0.00000115,0.00177336,-0.
 00181413,-0.00033666,-0.00013292,-0.00010881,-0.00001434,-0.00108711,-
 0.00070367,0.00319442,0.07299270,0.12416572,0.00000891,-0.00003297,0.0
 0002905,-0.00003224,0.00004037,-0.00003548,-0.00000425,0.00002966,-0.0
 0001100,0.00071495,0.00069054,-0.00063750,0.00011930,0.00030939,0.0001
 2716,-0.00011132,-0.00063701,0.00099684,0.00000650,0.00055802,-0.00028
 528,-0.00006933,0.00003513,0.00014807,0.00072659,-0.00023535,-0.000551
 54,0.00009045,0.00057232,0.00010923,-0.00013323,-0.00017803,0.00008590
 ,0.00002645,-0.00031190,-0.00052516,-0.01566222,-0.01668854,-0.0241758
 0,-0.09735878,-0.09558440,-0.18418520,-0.00072476,-0.00062676,0.003545
 53,0.00003598,-0.00002577,-0.00000534,-0.00001937,-0.00006003,0.000007
 29,-0.00001803,0.00001693,0.00000174,-0.00002891,0.00003579,-0.0000072
 6,0.00002686,-0.00000498,0.00001686,0.00003158,0.00003868,-0.00002645,
 0.00000978,-0.00002990,0.00022572,0.00004185,-0.00008734,0.00001913,-0
 .00001685,0.00000791,-0.00004074,-0.00002067,-0.00030412,0.00017219,0.
 00070026,-0.00120891,0.00050766,0.00001951,0.00002438,0.00002051,0.001
 51600,0.00356234,-0.00403276,0.10498018,0.10450388,0.20174752,-0.00001
 974,0.00002931,0.00001167,0.00003391,-0.00004080,0.00000673,0.00003374
 ,0.00006202,0.00002694,0.00014915,-0.00058203,-0.00017798,-0.00009830,
 0.00016556,-0.00015997,0.00032235,-0.00022450,0.00099196,-0.00014253,-
 0.00034627,0.00006093,0.00009736,0.00013148,-0.00006252,0.00023888,-0.
 00002337,0.00009357,-0.00043054,0.00040295,-0.00017551,0.00011341,-0.0
 0005191,0.00007860,0.00016594,-0.00031703,-0.00001963,-0.00032533,-0.0
 0508608,0.00099376,-0.08130696,0.09123055,0.00351523,0.00125165,0.0001
 6563,-0.00055348,-0.00001065,-0.00000411,0.00001114,-0.00000414,0.0000
 2405,-0.00000244,0.00000989,-0.00000688,-0.00000237,0.00000916,-0.0000
 0890,0.00000212,-0.00000199,0.00001300,-0.00000749,0.00000599,-0.00000
 820,-0.00002027,0.00002951,-0.00012073,0.00002307,0.00025684,-0.000090
 69,0.00009391,-0.00003567,-0.00000068,-0.00001543,0.00003597,0.0000237
 3,0.00001119,-0.00010376,0.00000399,-0.00019235,0.00000458,0.00001928,
 -0.00000855,0.00001826,0.00030606,-0.00027932,0.00601654,-0.01602369,0
 .00040218,0.08289272,-0.00009446,-0.00005322,0.00000677,0.00001446,-0.
 00002364,0.00000198,-0.00003100,0.00006872,0.00002140,0.00024765,-0.00
 085709,-0.00053044,-0.00048711,0.00027249,0.00021363,0.00016098,0.0017
 8555,0.00240354,-0.00050619,0.00046888,-0.00006077,0.00015532,-0.00031
 912,0.00004145,0.00023467,0.00024311,-0.00030204,0.00013359,0.00055087
 ,-0.00002301,-0.00012819,-0.00029228,0.00005891,-0.00008370,-0.0003589
 0,-0.00012041,0.00490490,-0.01445722,-0.00063206,0.09043378,-0.2902931
 4,-0.01450130,0.00006296,0.00165334,-0.00047560,0.00001508,-0.00003826
 ,0.00000367,-0.00001943,-0.00003510,-0.00001347,-0.00001584,0.00001611
 ,0.00000140,-0.00002374,0.00002356,0.00000818,0.00001390,0.00000655,-0
 .00000778,0.00008892,0.00012517,-0.00000260,0.00002494,-0.00085146,0.0
 0011113,0.00003081,-0.00000043,0.00001336,0.00002752,0.00008882,-0.000
 01982,-0.00002629,-0.00012253,0.00005980,-0.00010893,-0.00030659,0.000
 19726,0.00004441,0.00003807,0.00001776,-0.00034504,0.00098498,0.000010
 29,0.00566609,-0.01298399,0.00025743,-0.09906681,0.31153197,0.00020978
 ,0.00012618,0.00004331,-0.00001962,0.00004994,-0.00000882,0.00001855,-
 0.00010969,-0.00000131,-0.00040470,0.00085963,0.00029951,0.00072588,0.
 00099117,0.00002778,0.00165926,-0.00040680,-0.00495510,0.00038944,-0.0
 0029376,-0.00094758,-0.00017922,0.00020254,0.00042043,0.00045923,0.000
 00013,-0.00072987,0.00015838,0.00064222,-0.00010557,-0.00018933,-0.000
 37984,0.00012209,-0.00006393,-0.00046280,-0.00008476,-0.01175156,0.032
 92042,-0.00043191,0.00537609,-0.01673428,-0.04702687,-0.00128637,-0.00
 221967,0.00110273,-0.00000336,0.00002623,-0.00001155,0.00001376,0.0000
 3560,0.00001234,0.00001646,-0.00001566,-0.00000285,0.00002564,-0.00002
 472,-0.00000700,-0.00001072,-0.00000931,0.00000185,-0.00020876,-0.0002
 6339,-0.00005881,-0.00019491,0.00123936,-0.00021363,-0.00006100,0.0000
 0128,0.00002866,0.00001529,-0.00006512,-0.00009018,-0.00006130,-0.0003
 5311,0.00019981,-0.00014867,-0.00047463,0.00054422,0.00003732,0.000013
 11,0.00000720,-0.00044709,-0.00044883,0.00139145,0.00959489,-0.0204347
 9,-0.00029617,-0.00543131,0.01340611,0.05207336,-0.00001963,-0.0000704
 4,-0.00000994,-0.00003202,0.00007219,-0.00000117,-0.00006899,-0.000062
 21,0.00002660,0.00055378,0.00153475,0.00015377,0.00022261,-0.00041220,
 -0.00018429,-0.00014660,0.00007707,0.00042603,-0.00011965,-0.00017043,
 0.00042275,0.00014917,0.00014920,-0.00022845,0.00010709,0.00015967,0.0
 0053121,-0.00078062,0.00014256,-0.00023547,0.00027472,0.00012385,0.000
 05057,0.00035617,-0.00022910,-0.00000286,-0.00317027,0.00027143,-0.001
 09436,-0.30491026,-0.01084861,0.06286946,0.00047688,-0.00113517,0.0011
 0188,0.00003822,-0.00001508,0.00000020,-0.00000828,-0.00004948,0.00000
 047,-0.00001787,0.00001465,0.00000120,-0.00001897,0.00002306,-0.000000
 19,0.00000846,-0.00001129,0.00000193,0.00005767,0.00007588,0.00000858,
 0.00010769,-0.00008582,-0.00001073,0.00014242,0.00002693,0.00000552,-0
 .00006134,0.00002064,0.00003474,0.00006835,0.00025646,-0.00010308,0.00
 006061,0.00017584,-0.00045177,-0.00001252,0.00002775,-0.00001307,0.000
 07390,-0.00032895,0.00044795,-0.01262043,0.00102161,0.00473727,-0.0091
 9131,-0.00131192,0.00175966,0.32846940,0.00005293,-0.00005317,-0.00000
 259,-0.00008411,0.00011361,-0.00002146,-0.00007094,-0.00019289,-0.0001
 2607,-0.00003098,0.00191326,0.00021569,0.00049197,-0.00003577,-0.00015
 065,-0.00022010,0.00022861,-0.00042809,-0.00019329,-0.00084805,0.00045
 202,0.00011624,0.00042627,-0.00027148,-0.00013226,-0.00052485,0.000119
 65,-0.00084711,0.00004422,-0.00022892,0.00028571,0.00016835,0.00004343
 ,0.00040765,-0.00023286,0.00002274,-0.01369215,-0.00196375,0.00038294,
 -0.00951002,-0.04599803,0.00308803,-0.00259768,-0.00179006,0.00414052,
 0.00003827,-0.00002875,0.00000498,0.00000168,-0.00003940,-0.00000032,-
 0.00001633,0.00001421,-0.00000023,-0.00001622,0.00001317,-0.00000276,0
 .00000324,-0.00002692,0.00000961,-0.00001543,0.00000369,0.00000656,0.0
 0015478,0.00009526,-0.00005879,0.00052802,-0.00024872,0.00018056,-0.00
 009662,-0.00001679,0.00001257,0.00004878,0.00015661,-0.00005467,-0.000
 24954,-0.00096000,-0.00094777,-0.00002003,0.00001730,-0.00000834,0.000
 20822,0.00028863,-0.00016087,-0.01453791,-0.00149833,0.00534229,0.0294
 1221,0.00313585,-0.00781877,0.01057016,0.04786013,0.00000733,0.0001514
 0,0.00000752,0.00015850,-0.00020649,0.00003485,0.00021392,0.00044670,0
 .00019768,0.00046850,-0.00340036,-0.00120121,-0.00084033,0.00071311,0.
 00043377,0.00017803,-0.00009912,0.00058678,0.00021928,0.00042193,0.000
 08914,-0.00018911,-0.00006026,-0.00005191,-0.00029626,-0.00017784,0.00
 014858,-0.00028677,0.00015405,-0.00033410,0.00005473,-0.00004059,0.000
 11974,0.00014702,-0.00031284,0.00004073,0.02638678,-0.00230039,-0.0016
 1947,0.06217137,0.00354104,-0.06441368,0.00487347,0.00590735,-0.005597
 24,-0.00008702,0.00006838,-0.00001143,0.00000578,0.00010292,0.00000808
 ,0.00004416,-0.00003835,-0.00000332,0.00004599,-0.00003744,-0.00000100
 ,-0.00000609,0.00005260,-0.00001315,-0.00010198,-0.00013296,0.00001117
 ,-0.00017232,-0.00015553,-0.00001325,-0.00036183,0.00020430,0.00000823
 ,0.00004176,-0.00007196,0.00001346,0.00003623,0.00010421,-0.00003647,-
 0.00017418,-0.00065659,-0.00024507,0.00000545,0.00000085,-0.00002012,-
 0.00094111,-0.00074393,0.00052520,-0.02211606,0.00043774,0.00706072,0.
 00077712,-0.00015443,-0.00130635,-0.07023614,-0.00374767,0.06558996,-0
 .00003992,0.00160599,0.00016601,-0.00335726,0.00224947,0.00020107,0.01
 072046,0.02051406,0.00235726,0.00068304,0.00104724,0.00008637,0.000300
 45,-0.00059291,-0.00006906,0.00006861,0.00002612,-0.00006811,-0.000055
 10,0.00003619,0.00006501,0.00004072,-0.00008433,-0.00001698,0.00000677
 ,-0.00000966,-0.00000752,0.00003700,0.00006693,0.00002291,-0.00002206,
 -0.00004760,0.00000593,-0.00002315,-0.00002924,-0.00001560,-0.00063535
 ,-0.00028401,0.00017861,0.00013627,0.00000044,-0.00000824,-0.00157263,
 -0.00024844,-0.00015098,-0.07913044,-0.07720532,-0.00901900,-0.0038774
 5,-0.02722180,-0.00319801,0.00126900,-0.00093924,-0.00007813,-0.005560
 39,-0.00067494,-0.00014162,-0.00078613,0.00079767,0.00006996,0.0005779
 3,0.00014772,0.00005185,0.00001348,-0.00000581,0.00000536,0.00000311,-
 0.00000548,-0.00000690,0.00000180,0.00002787,0.00000289,-0.00000138,-0
 .00000658,-0.00000549,-0.00000617,0.00000349,0.00000991,0.00001593,-0.
 00000218,-0.00002202,0.00008661,0.00000673,-0.00002156,-0.00001003,0.0
 0000867,0.00000808,-0.00001762,-0.00001004,0.00000186,0.00001554,0.000
 01892,-0.00004373,0.08102093,-0.00016535,-0.00092050,-0.00011318,0.003
 47530,0.00035570,-0.00057832,-0.00605940,-0.01498410,-0.00215782,-0.00
 073433,-0.00173404,0.00039747,-0.00016658,0.00032797,0.00005867,-0.000
 16646,0.00009430,0.00001603,0.00006102,-0.00004430,-0.00008649,-0.0000
 4729,0.00009065,0.00001590,-0.00000714,0.00001379,0.00000652,-0.000015
 03,-0.00006308,-0.00003254,0.00001649,0.00004542,0.00000428,0.00000711
 ,0.00002753,0.00002886,0.00055180,0.00052013,-0.00014222,-0.00006229,0
 .00000926,-0.00000150,-0.00177965,0.00071088,0.00020295,-0.07792671,-0
 .32197526,-0.03227479,0.00097394,-0.00187373,-0.00069562,0.00075356,0.
 00083054,0.00038697,-0.00054011,0.00104514,-0.00051853,0.00015638,0.00
 056867,0.00017013,-0.00038839,-0.00010683,-0.00002920,-0.00004407,0.00
 000197,0.00000274,-0.00000898,0.00000467,0.00000805,0.00000059,-0.0000
 3029,-0.00000220,0.00000051,0.00000491,0.00000608,0.00000498,-0.000003
 24,-0.00000743,-0.00001296,-0.00000603,0.00000932,-0.00005030,-0.00001
 148,0.00000561,0.00001161,-0.00000430,-0.00000970,0.00001160,-0.000002
 95,0.00000341,-0.00001297,-0.00001910,0.00002788,0.08220361,0.33711208
 ,-0.00000564,-0.00009172,0.00007224,0.00025457,-0.00071148,0.00615803,
 -0.00076210,-0.00183952,0.00376365,0.00000486,0.00020694,-0.00397339,-
 0.00012981,0.00010570,-0.00002421,0.00000019,0.00009094,0.00051992,-0.
 00004361,-0.00006498,-0.00003828,-0.00001746,0.00004039,-0.00000987,-0
 .00000010,-0.00000509,-0.00001633,0.00001603,-0.00003665,0.00001058,0.
 00000234,0.00001794,-0.00000968,-0.00001972,0.00002261,0.00000246,0.00
 007329,-0.00002396,-0.00021815,0.00003160,0.00000780,0.00000385,-0.000
 22721,0.00017383,0.00018625,-0.00887568,-0.03218245,-0.04132845,-0.000
 07985,-0.00106827,0.00419414,0.00009635,0.00041108,-0.00285578,-0.0001
 8473,-0.00048112,0.00582913,0.00007069,0.00015568,-0.00097956,-0.00003
 709,-0.00002098,-0.00001727,0.00008317,0.00000014,-0.00001969,-0.00001
 958,0.00001298,0.00001230,-0.00000155,-0.00001022,0.00000168,0.0000011
 5,0.00000167,0.00000084,0.00000209,0.00000055,-0.00000031,-0.00000091,
 -0.00000287,0.00000194,-0.00003209,0.00000097,0.00000891,0.00000228,-0
 .00001048,-0.00000654,0.00000700,0.00000887,0.00000359,-0.00000758,0.0
 0000643,-0.00000635,0.00979691,0.03524011,0.02921095,-0.00124522,-0.00
 028722,-0.00008222,0.00007413,0.00270488,0.00023549,0.00067214,0.00052
 918,0.00007454,-0.00021283,-0.00005098,-0.00000594,0.00000116,-0.00008
 511,-0.00001839,0.00001180,-0.00003282,0.00000918,-0.00000120,0.000015
 61,0.00000232,0.00000006,-0.00000397,-0.00000027,-0.00000006,-0.000003
 36,-0.00000009,0.00000231,0.00002915,-0.00000376,-0.00000837,-0.000015
 06,0.00001509,0.00000084,-0.00000763,0.00000368,0.00000724,-0.00001179
 ,-0.00000751,0.00000046,-0.00000115,0.00000003,-0.00001458,-0.00001657
 ,0.00000934,0.00120882,-0.00111276,-0.00017856,-0.00403840,0.00130986,
 0.00006319,0.00106304,0.00055671,0.00009853,-0.33024937,-0.06816790,-0
 .01106869,-0.01383578,-0.00616545,-0.00091382,0.00015082,0.00033531,0.
 00007248,0.00000932,0.00000874,-0.00000247,0.00000269,-0.00000190,-0.0
 0000141,0.00000188,0.00000164,0.00000140,0.00000011,-0.00000022,-0.000
 00060,-0.00000087,-0.00000022,-0.00000006,0.00000306,-0.00000742,-0.00
 001907,-0.00000061,-0.00000099,0.00000085,-0.00000013,-0.00000033,0.00
 000055,-0.00000015,0.00000017,-0.00000007,0.00000006,0.,0.00000021,-0.
 00002821,0.00002939,0.00000072,0.34552443,0.00143594,0.00060195,0.0001
 6292,0.00275530,-0.00303805,-0.00129255,0.00102318,-0.00082727,0.00004
 259,-0.00023771,-0.00015630,0.00006421,0.00011570,0.00003716,0.0000170
 0,-0.00005278,0.00000280,-0.00000397,-0.00000578,0.00001975,0.00000230
 ,0.00000498,-0.00000958,0.00000129,0.00000034,-0.00000253,0.00000084,-
 0.00001094,-0.00000975,0.00003042,0.00000806,-0.00000445,-0.00002557,0
 .00000328,0.00000360,-0.00002002,0.00003153,0.00003406,-0.00000445,-0.
 00000067,0.00000310,0.00000197,-0.00003372,0.00011765,0.00001117,-0.00
 112467,-0.00551731,-0.00128785,-0.02767387,-0.00297055,-0.00108910,-0.
 00092658,0.00116951,0.00039562,-0.06637490,-0.07358976,-0.00483205,0.0
 2234436,0.00982888,0.00079584,0.00001057,-0.00034375,-0.00005466,0.000
 00972,0.00001058,-0.00000044,0.00000522,-0.00000303,-0.00000265,-0.000
 00693,0.00000981,-0.00000215,0.00000029,0.00000021,-0.00000111,0.00000
 006,0.00000082,0.00000046,0.00000228,0.00001496,0.00002117,-0.00000124
 ,0.00000505,-0.00000133,0.00000038,-0.00000207,0.00000104,0.00000074,0
 .00000190,-0.00000207,0.00000011,-0.00000033,-0.00000089,-0.00132887,0
 .00007588,0.00000113,0.07062999,0.07375669,0.00015784,0.00005583,-0.00
 014480,0.00020028,-0.00123704,0.00815932,0.00013939,-0.00004439,-0.000
 91619,-0.00001881,0.00005947,-0.00061892,0.00000105,0.00002694,-0.0001
 4802,0.00000966,0.00000788,0.00011012,-0.00000847,0.00000472,-0.000003
 17,-0.00000264,0.00000433,-0.00000063,-0.00000251,-0.00000181,-0.00000
 227,0.00000581,-0.00000028,0.00002664,-0.00000678,0.00000334,0.0000016
 1,-0.00001396,0.00000072,-0.00001106,0.00000654,-0.00002332,-0.0000150
 4,-0.00000177,0.00000234,0.00000060,-0.00001845,0.00001894,0.00006696,
 -0.00013986,-0.00126637,0.00526091,-0.00328820,-0.00078000,0.00368635,
 -0.00007983,0.00042200,-0.00236256,-0.01086816,-0.00487478,-0.03983310
 ,0.00236767,0.00051875,0.00504709,0.00002682,-0.00000081,-0.00023320,0
 .00001958,-0.00000048,-0.00000050,-0.00000002,0.00000014,0.00000050,-0
 .00000162,0.00000083,-0.00000103,0.00000044,0.00000009,-0.00000013,0.0
 0000082,0.00000009,-0.00000006,0.00000401,0.00000176,0.00000613,0.0000
 0093,-0.00000301,0.00000037,-0.00000023,-0.00000131,0.00000140,0.00000
 082,0.00000098,0.00000022,-0.00000071,0.00000058,0.00000083,-0.0001592
 6,0.00002120,-0.00004613,0.01167301,0.00644066,0.02666437,0.00330807,0
 .00032822,0.00017322,-0.00336002,-0.02935396,-0.00356392,-0.00527810,-
 0.00043985,-0.00021269,0.00066062,-0.00144105,-0.00018042,0.00003694,0
 .00021384,0.00004525,0.00000319,0.00005786,0.00001274,0.00001020,-0.00
 004408,-0.00002525,-0.00001318,0.00003575,0.00000457,-0.00000117,0.000
 00941,0.00000062,0.00000412,-0.00006636,-0.00001100,0.00001982,0.00004
 710,-0.00001130,-0.00000688,0.00002667,0.00001766,0.00012239,-0.000085
 67,-0.00007328,-0.00004772,0.00000267,-0.00000344,-0.00076081,-0.00014
 182,0.00005691,-0.00143849,0.00084348,0.00008356,-0.00172423,0.0026264
 0,0.00020296,-0.00038606,0.00141590,0.00015288,0.00994916,0.02218679,0
 .00264222,-0.07843440,-0.07448336,-0.00909172,-0.00023392,-0.00022797,
 -0.00005259,-0.00002437,-0.00001265,0.00000053,-0.00000852,0.00000685,
 0.00000783,-0.00000043,-0.00001674,-0.00000163,-0.00000025,0.00000223,
 0.00000311,0.00000295,-0.00000102,-0.00000333,-0.00001996,-0.00000622,
 0.00001597,-0.00005387,-0.00000573,0.00001753,0.00000402,0.00000099,-0
 .00000329,0.00000285,-0.00000147,0.00000043,-0.00000397,-0.00000807,0.
 00001731,0.00012562,-0.00006989,0.00000143,0.00090142,-0.00060338,-0.0
 0000340,0.07664498,0.00067022,0.00048637,0.00045101,0.00067683,-0.0030
 2297,-0.00089788,-0.00102842,0.00058365,-0.00054266,0.00051953,-0.0001
 3641,-0.00000438,0.00001821,0.00018798,0.00001684,-0.00004067,0.000029
 29,-0.00000024,0.00000017,-0.00001334,-0.00000746,-0.00000189,0.000005
 00,0.00000210,0.00000088,0.00000176,0.00000195,-0.00001859,-0.00001662
 ,-0.00000080,0.00000769,0.00000369,-0.00000812,0.00001169,0.00000664,0
 .00000155,0.00003616,0.00001019,-0.00000914,-0.00000951,0.00000151,0.0
 0000062,-0.00011412,-0.00000944,0.00001541,0.00005344,0.00064564,0.000
 18939,0.00297358,0.00035090,-0.00079734,0.00014092,-0.00086847,-0.0001
 1975,-0.00683314,-0.01480368,-0.00214695,-0.07579933,-0.32187756,-0.03
 409134,-0.00019683,-0.00003473,0.00004966,-0.00000992,-0.00000613,0.00
 000137,-0.00000234,0.00000195,0.00000254,-0.00000188,-0.00000124,-0.00
 000208,0.00000017,0.00000068,0.00000067,0.00000068,-0.00000004,-0.0000
 0038,-0.00001129,0.00001145,0.00001477,-0.00000582,0.00000497,0.000001
 43,0.00000050,-0.00000026,-0.00000035,0.00000052,-0.00000005,-0.000000
 09,-0.00000018,-0.00000138,0.00000317,-0.00006465,-0.00006028,0.000044
 04,-0.00017779,0.00078036,0.00064201,0.07920517,0.33774058,0.00017749,
 0.00041906,-0.00319463,-0.00000282,-0.00132770,0.00490022,-0.00027734,
 -0.00055481,0.00494853,0.00007752,-0.00001209,-0.00000872,-0.00001011,
 0.00002934,0.00002368,-0.00000553,0.00001566,0.00000900,0.00000071,-0.
 00000974,0.00000158,0.,0.00000471,-0.00000486,-0.00000382,0.00000154,-
 0.00000227,0.00002582,-0.00003167,0.00001705,0.00000477,0.00001239,-0.
 00002850,-0.00002898,0.00000977,-0.00000300,0.00000564,0.00000404,-0.0
 0004087,0.00000673,0.00000203,0.00000396,-0.00004014,-0.00002093,-0.00
 008884,0.00001181,0.00022210,-0.00089288,0.00023124,-0.00078785,0.0073
 9492,0.00001172,-0.00011269,0.00020170,-0.00071233,-0.00177629,0.00278
 216,-0.00926837,-0.03402644,-0.03924782,-0.00003098,0.00007705,-0.0005
 7906,0.00000013,-0.00000279,-0.00000011,-0.00000195,0.00000115,0.00000
 028,-0.00000043,-0.00000181,0.00000383,-0.00000065,0.00000006,0.000000
 43,0.00000039,0.00000028,-0.00000029,0.00001383,0.00000899,0.00002284,
 -0.00000905,-0.00000085,0.00000187,-0.00000109,-0.00000129,-0.00000030
 ,0.00000068,-0.00000016,-0.00000023,0.00000003,0.00000086,-0.00000234,
 0.00000223,0.00003736,-0.00043045,0.00004231,0.00063026,-0.00469661,0.
 00978053,0.03719045,0.02890972\\0.00001783,0.00002206,0.00001585,-0.00
 001105,-0.00000267,-0.00000278,-0.00000085,-0.00002183,0.00001722,-0.0
 0002192,0.00000699,-0.00002639,0.00000638,-0.00001677,-0.00000020,0.00
 001249,0.00000641,-0.00001502,0.00000182,0.00000075,0.00001784,-0.0000
 0148,0.00001685,-0.00000072,-0.00001933,0.00000129,0.00000152,0.000005
 16,0.00001888,-0.00000203,-0.00002038,0.00001515,-0.00001348,0.0000132
 3,-0.00001792,0.00001404,-0.00001995,-0.00001431,0.00000216,-0.0000040
 6,0.00001074,0.00001183,0.00000535,0.00001188,0.00000167,-0.00000569,-
 0.00000692,0.00000038,0.00000372,-0.00001197,0.00000084,-0.00000420,-0
 .00000687,0.00000367,0.00001064,-0.00000574,0.00000082,0.00001319,0.00
 001551,0.00000229,-0.00000392,-0.00001316,-0.00000815,0.00001034,-0.00
 000367,0.00000126,0.00000084,0.00000250,-0.00000391,0.00000449,-0.0000
 0059,-0.00000535,0.00000345,0.00000468,-0.00000654,0.00000179,-0.00000
 030,-0.00000369,0.00002167,-0.00000459,0.00000056,-0.00000283,0.000007
 39,-0.00000240,-0.00000663,0.00000148,-0.00000199,-0.00000563,0.000005
 37,-0.00000615,-0.00000380,0.00000393,-0.00000187,-0.00000364,-0.00000
 320,0.00000356,-0.00000057,-0.00001140,0.00000381,0.00000355,-0.000009
 95,0.00000135\\\@


 ORIGINALITY CONSISTS NOT IN SAYING WHAT NO ONE HAS EVER SAID BEFORE, 
 BUT IN SAYING WHAT YOU THINK YOUR SELF.

                                    -- JAMES F. STEPHEN
 Job cpu time:  0 days  8 hours 50 minutes 14.3 seconds.
 File lengths (MBytes):  RWF=    859 Int=      0 D2E=      0 Chk=     20 Scr=      1
 Normal termination of Gaussian 09 at Sat Mar 23 00:59:23 2019.
