 Entering Gaussian System, Link 0=g09
 Initial command:
 /home/yuheng/proj/yuheng/g09/l1.exe /home/yuheng/proj/yuheng/g09_scratch/Gau-211706.inp -scrdir=/home/yuheng/proj/yuheng/g09_scratch/
 Entering Link 1 = /home/yuheng/proj/yuheng/g09/l1.exe PID=    211707.
  
 Copyright (c) 1988,1990,1992,1993,1995,1998,2003,2009,2010,
            Gaussian, Inc.  All Rights Reserved.
  
 This is part of the Gaussian(R) 09 program.  It is based on
 the Gaussian(R) 03 system (copyright 2003, Gaussian, Inc.),
 the Gaussian(R) 98 system (copyright 1998, Gaussian, Inc.),
 the Gaussian(R) 94 system (copyright 1995, Gaussian, Inc.),
 the Gaussian 92(TM) system (copyright 1992, Gaussian, Inc.),
 the Gaussian 90(TM) system (copyright 1990, Gaussian, Inc.),
 the Gaussian 88(TM) system (copyright 1988, Gaussian, Inc.),
 the Gaussian 86(TM) system (copyright 1986, Carnegie Mellon
 University), and the Gaussian 82(TM) system (copyright 1983,
 Carnegie Mellon University). Gaussian is a federally registered
 trademark of Gaussian, Inc.
  
 This software contains proprietary and confidential information,
 including trade secrets, belonging to Gaussian, Inc.
  
 This software is provided under written license and may be
 used, copied, transmitted, or stored only in accord with that
 written license.
  
 The following legend is applicable only to US Government
 contracts under FAR:
  
                    RESTRICTED RIGHTS LEGEND
  
 Use, reproduction and disclosure by the US Government is
 subject to restrictions as set forth in subparagraphs (a)
 and (c) of the Commercial Computer Software - Restricted
 Rights clause in FAR 52.227-19.
  
 Gaussian, Inc.
 340 Quinnipiac St., Bldg. 40, Wallingford CT 06492
  
  
 ---------------------------------------------------------------
 Warning -- This program may not be used in any manner that
 competes with the business of Gaussian, Inc. or will provide
 assistance to any competitor of Gaussian, Inc.  The licensee
 of this program is prohibited from giving any competitor of
 Gaussian, Inc. access to this program.  By using this program,
 the user acknowledges that Gaussian, Inc. is engaged in the
 business of creating and licensing software in the field of
 computational chemistry and represents and warrants to the
 licensee that it is not a competitor of Gaussian, Inc. and that
 it will not use this program in any manner prohibited above.
 ---------------------------------------------------------------
  

 Cite this work as:
 Gaussian 09, Revision B.01,
 M. J. Frisch, G. W. Trucks, H. B. Schlegel, G. E. Scuseria, 
 M. A. Robb, J. R. Cheeseman, G. Scalmani, V. Barone, B. Mennucci, 
 G. A. Petersson, H. Nakatsuji, M. Caricato, X. Li, H. P. Hratchian, 
 A. F. Izmaylov, J. Bloino, G. Zheng, J. L. Sonnenberg, M. Hada, 
 M. Ehara, K. Toyota, R. Fukuda, J. Hasegawa, M. Ishida, T. Nakajima, 
 Y. Honda, O. Kitao, H. Nakai, T. Vreven, J. A. Montgomery, Jr., 
 J. E. Peralta, F. Ogliaro, M. Bearpark, J. J. Heyd, E. Brothers, 
 K. N. Kudin, V. N. Staroverov, T. Keith, R. Kobayashi, J. Normand, 
 K. Raghavachari, A. Rendell, J. C. Burant, S. S. Iyengar, J. Tomasi, 
 M. Cossi, N. Rega, J. M. Millam, M. Klene, J. E. Knox, J. B. Cross, 
 V. Bakken, C. Adamo, J. Jaramillo, R. Gomperts, R. E. Stratmann, 
 O. Yazyev, A. J. Austin, R. Cammi, C. Pomelli, J. W. Ochterski, 
 R. L. Martin, K. Morokuma, V. G. Zakrzewski, G. A. Voth, 
 P. Salvador, J. J. Dannenberg, S. Dapprich, A. D. Daniels, 
 O. Farkas, J. B. Foresman, J. V. Ortiz, J. Cioslowski, 
 and D. J. Fox, Gaussian, Inc., Wallingford CT, 2010.
 
 ******************************************
 Gaussian 09:  EM64L-G09RevB.01 12-Aug-2010
                22-Mar-2019 
 ******************************************
 %mem=16gb
 %nprocshared=20
 Will use up to   20 processors via shared memory.
 %chk=1b-conf-9.chk
 ----------------------------------------------------------------------
 # m062x/6-31+G(d,p) opt freq=noraman integral(ultrafinegrid) scrf=(ief
 pcm,read,solvent=methanol)
 ----------------------------------------------------------------------
 1/14=-1,18=20,19=15,26=3,38=1,40=2/1,3;
 2/9=110,12=2,17=6,18=5,40=1/2;
 3/5=1,6=6,7=111,11=2,16=1,25=1,30=1,70=2203,71=1,72=3,74=-55,75=-5/1,2,3;
 4//1;
 5/5=2,38=5,53=3/2;
 6/7=2,8=2,9=2,10=2,28=1/1;
 7//1,2,3,16;
 1/14=-1,18=20,19=15/3(2);
 2/9=110/2;
 99//99;
 2/9=110/2;
 3/5=1,6=6,7=111,11=2,16=1,25=1,30=1,70=2205,71=1,72=3,74=-55,75=-5/1,2,3;
 4/5=5,16=3/1;
 5/5=2,38=5,53=3/2;
 7//1,2,3,16;
 1/14=-1,18=20,19=15/3(-5);
 2/9=110/2;
 6/7=2,8=2,9=2,10=2,19=2,28=1/1;
 99/9=1/99;
 ----------------------------------------------------------------------
 Candidate Structure: 1b, Conformer: 9 geometry optimization and freque
 ncy calculation with methanol solvation
 ----------------------------------------------------------------------
 Symbolic Z-matrix:
 Charge =  0 Multiplicity = 1
 O                    -0.43543   0.57356  -1.76201 
 C                    -1.23152   1.63499  -1.43538 
 C                    -0.71073   2.88612  -0.99785 
 C                     0.74063   3.1654   -0.83016 
 N                     1.63533   2.26809  -0.80034 
 C                     2.90117   2.91069  -0.57637 
 C                     4.08352   2.20109  -1.30229 
 O                     4.17025   0.90289  -0.74481 
 C                     4.10267   2.0943   -2.85661 
 C                     2.88      1.46837  -3.54007 
 O                     2.53396   2.13193  -4.67409 
 O                     2.30092   0.46689  -3.12837 
 C                     2.6352    4.41787  -0.76706 
 C                     3.07257   5.08564  -2.07852 
 O                     1.22193   4.44075  -0.72098 
 C                    -1.60725   3.93656  -0.69959 
 C                    -2.99614   3.7527   -0.82642 
 Cl                   -4.07347   5.04761  -0.4553 
 C                    -3.50598   2.51423  -1.25492 
 C                    -2.62443   1.46033  -1.55868 
 H                     0.49302   0.77489  -1.65796 
 H                     3.11723   2.8006    0.49004 
 H                     4.99957   2.71667  -1.01081 
 H                     3.30611   0.51671  -0.83864 
 H                     4.96336   1.49197  -3.148 
 H                     4.29399   3.06817  -3.30094 
 H                     1.79325   1.69888  -5.07056 
 H                     3.0372    4.98165   0.07608 
 H                     2.62784   4.59858  -2.94635 
 H                     2.75365   6.12791  -2.09767 
 H                     4.15699   5.07928  -2.18596 
 H                    -1.2355    4.89465  -0.36629 
 H                    -4.57241   2.37301  -1.35207 
 H                    -3.01878   0.51091  -1.89102 
 

 GradGradGradGradGradGradGradGradGradGradGradGradGradGradGradGradGradGrad
 Berny optimization.
 Initialization pass.
                           ----------------------------
                           !    Initial Parameters    !
                           ! (Angstroms and Degrees)  !
 --------------------------                            --------------------------
 ! Name  Definition              Value          Derivative Info.                !
 --------------------------------------------------------------------------------
 ! R1    R(1,2)                  1.3664         estimate D2E/DX2                !
 ! R2    R(1,21)                 0.9557         estimate D2E/DX2                !
 ! R3    R(2,3)                  1.4241         estimate D2E/DX2                !
 ! R4    R(2,20)                 1.4092         estimate D2E/DX2                !
 ! R5    R(3,4)                  1.4875         estimate D2E/DX2                !
 ! R6    R(3,16)                 1.4128         estimate D2E/DX2                !
 ! R7    R(4,5)                  1.2675         estimate D2E/DX2                !
 ! R8    R(4,15)                 1.3675         estimate D2E/DX2                !
 ! R9    R(5,6)                  1.4372         estimate D2E/DX2                !
 ! R10   R(6,7)                  1.5583         estimate D2E/DX2                !
 ! R11   R(6,13)                 1.5423         estimate D2E/DX2                !
 ! R12   R(6,22)                 1.0936         estimate D2E/DX2                !
 ! R13   R(7,8)                  1.4155         estimate D2E/DX2                !
 ! R14   R(7,9)                  1.5581         estimate D2E/DX2                !
 ! R15   R(7,23)                 1.0908         estimate D2E/DX2                !
 ! R16   R(8,24)                 0.9511         estimate D2E/DX2                !
 ! R17   R(9,10)                 1.5342         estimate D2E/DX2                !
 ! R18   R(9,25)                 1.0902         estimate D2E/DX2                !
 ! R19   R(9,26)                 1.0874         estimate D2E/DX2                !
 ! R20   R(10,11)                1.3587         estimate D2E/DX2                !
 ! R21   R(10,12)                1.2279         estimate D2E/DX2                !
 ! R22   R(11,27)                0.9452         estimate D2E/DX2                !
 ! R23   R(13,14)                1.5353         estimate D2E/DX2                !
 ! R24   R(13,15)                1.4142         estimate D2E/DX2                !
 ! R25   R(13,28)                1.091          estimate D2E/DX2                !
 ! R26   R(14,29)                1.09           estimate D2E/DX2                !
 ! R27   R(14,30)                1.0901         estimate D2E/DX2                !
 ! R28   R(14,31)                1.0898         estimate D2E/DX2                !
 ! R29   R(16,17)                1.4067         estimate D2E/DX2                !
 ! R30   R(16,32)                1.0804         estimate D2E/DX2                !
 ! R31   R(17,18)                1.7249         estimate D2E/DX2                !
 ! R32   R(17,19)                1.4062         estimate D2E/DX2                !
 ! R33   R(19,20)                1.4072         estimate D2E/DX2                !
 ! R34   R(19,33)                1.0801         estimate D2E/DX2                !
 ! R35   R(20,34)                1.0804         estimate D2E/DX2                !
 ! A1    A(2,1,21)             112.1066         estimate D2E/DX2                !
 ! A2    A(1,2,3)              122.8774         estimate D2E/DX2                !
 ! A3    A(1,2,20)             117.3018         estimate D2E/DX2                !
 ! A4    A(3,2,20)             119.8178         estimate D2E/DX2                !
 ! A5    A(2,3,4)              123.8082         estimate D2E/DX2                !
 ! A6    A(2,3,16)             119.0781         estimate D2E/DX2                !
 ! A7    A(4,3,16)             117.1136         estimate D2E/DX2                !
 ! A8    A(3,4,5)              123.9509         estimate D2E/DX2                !
 ! A9    A(3,4,15)             121.8374         estimate D2E/DX2                !
 ! A10   A(5,4,15)             114.1993         estimate D2E/DX2                !
 ! A11   A(4,5,6)              107.9907         estimate D2E/DX2                !
 ! A12   A(5,6,7)              113.0839         estimate D2E/DX2                !
 ! A13   A(5,6,13)             105.4136         estimate D2E/DX2                !
 ! A14   A(5,6,22)             106.3179         estimate D2E/DX2                !
 ! A15   A(7,6,13)             121.2134         estimate D2E/DX2                !
 ! A16   A(7,6,22)             104.9814         estimate D2E/DX2                !
 ! A17   A(13,6,22)            104.6551         estimate D2E/DX2                !
 ! A18   A(6,7,8)              106.2985         estimate D2E/DX2                !
 ! A19   A(6,7,9)              120.3468         estimate D2E/DX2                !
 ! A20   A(6,7,23)             107.3046         estimate D2E/DX2                !
 ! A21   A(8,7,9)              109.2251         estimate D2E/DX2                !
 ! A22   A(8,7,23)             106.0681         estimate D2E/DX2                !
 ! A23   A(9,7,23)             106.7765         estimate D2E/DX2                !
 ! A24   A(7,8,24)             106.1319         estimate D2E/DX2                !
 ! A25   A(7,9,10)             117.5527         estimate D2E/DX2                !
 ! A26   A(7,9,25)             108.3127         estimate D2E/DX2                !
 ! A27   A(7,9,26)             110.3895         estimate D2E/DX2                !
 ! A28   A(10,9,25)            106.5407         estimate D2E/DX2                !
 ! A29   A(10,9,26)            108.8789         estimate D2E/DX2                !
 ! A30   A(25,9,26)            104.2821         estimate D2E/DX2                !
 ! A31   A(9,10,11)            112.0567         estimate D2E/DX2                !
 ! A32   A(9,10,12)            124.0011         estimate D2E/DX2                !
 ! A33   A(11,10,12)           123.9215         estimate D2E/DX2                !
 ! A34   A(10,11,27)           109.0215         estimate D2E/DX2                !
 ! A35   A(6,13,14)            118.7853         estimate D2E/DX2                !
 ! A36   A(6,13,15)            100.6093         estimate D2E/DX2                !
 ! A37   A(6,13,28)            110.2358         estimate D2E/DX2                !
 ! A38   A(14,13,15)           107.7872         estimate D2E/DX2                !
 ! A39   A(14,13,28)           109.2939         estimate D2E/DX2                !
 ! A40   A(15,13,28)           109.5528         estimate D2E/DX2                !
 ! A41   A(13,14,29)           111.6853         estimate D2E/DX2                !
 ! A42   A(13,14,30)           110.335          estimate D2E/DX2                !
 ! A43   A(13,14,31)           111.4173         estimate D2E/DX2                !
 ! A44   A(29,14,30)           107.0901         estimate D2E/DX2                !
 ! A45   A(29,14,31)           108.9599         estimate D2E/DX2                !
 ! A46   A(30,14,31)           107.1553         estimate D2E/DX2                !
 ! A47   A(4,15,13)            109.5139         estimate D2E/DX2                !
 ! A48   A(3,16,17)            120.6836         estimate D2E/DX2                !
 ! A49   A(3,16,32)            120.4053         estimate D2E/DX2                !
 ! A50   A(17,16,32)           118.9108         estimate D2E/DX2                !
 ! A51   A(16,17,18)           119.9435         estimate D2E/DX2                !
 ! A52   A(16,17,19)           120.0365         estimate D2E/DX2                !
 ! A53   A(18,17,19)           120.02           estimate D2E/DX2                !
 ! A54   A(17,19,20)           119.8853         estimate D2E/DX2                !
 ! A55   A(17,19,33)           120.0351         estimate D2E/DX2                !
 ! A56   A(20,19,33)           120.0795         estimate D2E/DX2                !
 ! A57   A(2,20,19)            120.4981         estimate D2E/DX2                !
 ! A58   A(2,20,34)            119.7744         estimate D2E/DX2                !
 ! A59   A(19,20,34)           119.7273         estimate D2E/DX2                !
 ! D1    D(21,1,2,3)             0.1986         estimate D2E/DX2                !
 ! D2    D(21,1,2,20)          179.5613         estimate D2E/DX2                !
 ! D3    D(1,2,3,4)             -0.9655         estimate D2E/DX2                !
 ! D4    D(1,2,3,16)           179.0733         estimate D2E/DX2                !
 ! D5    D(20,2,3,4)           179.6873         estimate D2E/DX2                !
 ! D6    D(20,2,3,16)           -0.2739         estimate D2E/DX2                !
 ! D7    D(1,2,20,19)         -179.2679         estimate D2E/DX2                !
 ! D8    D(1,2,20,34)            0.5959         estimate D2E/DX2                !
 ! D9    D(3,2,20,19)            0.1151         estimate D2E/DX2                !
 ! D10   D(3,2,20,34)          179.9789         estimate D2E/DX2                !
 ! D11   D(2,3,4,5)            -14.484          estimate D2E/DX2                !
 ! D12   D(2,3,4,15)           164.1556         estimate D2E/DX2                !
 ! D13   D(16,3,4,5)           165.4779         estimate D2E/DX2                !
 ! D14   D(16,3,4,15)          -15.8825         estimate D2E/DX2                !
 ! D15   D(2,3,16,17)            0.2445         estimate D2E/DX2                !
 ! D16   D(2,3,16,32)         -179.9796         estimate D2E/DX2                !
 ! D17   D(4,3,16,17)         -179.7193         estimate D2E/DX2                !
 ! D18   D(4,3,16,32)            0.0565         estimate D2E/DX2                !
 ! D19   D(3,4,5,6)           -177.9085         estimate D2E/DX2                !
 ! D20   D(15,4,5,6)             3.3586         estimate D2E/DX2                !
 ! D21   D(3,4,15,13)         -171.6003         estimate D2E/DX2                !
 ! D22   D(5,4,15,13)            7.1625         estimate D2E/DX2                !
 ! D23   D(4,5,6,7)           -146.059          estimate D2E/DX2                !
 ! D24   D(4,5,6,13)           -11.483          estimate D2E/DX2                !
 ! D25   D(4,5,6,22)            99.2595         estimate D2E/DX2                !
 ! D26   D(5,6,7,8)            -62.7154         estimate D2E/DX2                !
 ! D27   D(5,6,7,9)             61.9453         estimate D2E/DX2                !
 ! D28   D(5,6,7,23)          -175.8651         estimate D2E/DX2                !
 ! D29   D(13,6,7,8)           170.6953         estimate D2E/DX2                !
 ! D30   D(13,6,7,9)           -64.644          estimate D2E/DX2                !
 ! D31   D(13,6,7,23)           57.5456         estimate D2E/DX2                !
 ! D32   D(22,6,7,8)            52.766          estimate D2E/DX2                !
 ! D33   D(22,6,7,9)           177.4268         estimate D2E/DX2                !
 ! D34   D(22,6,7,23)          -60.3837         estimate D2E/DX2                !
 ! D35   D(5,6,13,14)         -102.5981         estimate D2E/DX2                !
 ! D36   D(5,6,13,15)           14.6297         estimate D2E/DX2                !
 ! D37   D(5,6,13,28)          130.2208         estimate D2E/DX2                !
 ! D38   D(7,6,13,14)           27.3882         estimate D2E/DX2                !
 ! D39   D(7,6,13,15)          144.6159         estimate D2E/DX2                !
 ! D40   D(7,6,13,28)          -99.7929         estimate D2E/DX2                !
 ! D41   D(22,6,13,14)         145.4797         estimate D2E/DX2                !
 ! D42   D(22,6,13,15)         -97.2925         estimate D2E/DX2                !
 ! D43   D(22,6,13,28)          18.2986         estimate D2E/DX2                !
 ! D44   D(6,7,8,24)            54.421          estimate D2E/DX2                !
 ! D45   D(9,7,8,24)           -76.8362         estimate D2E/DX2                !
 ! D46   D(23,7,8,24)          168.4202         estimate D2E/DX2                !
 ! D47   D(6,7,9,10)           -54.4301         estimate D2E/DX2                !
 ! D48   D(6,7,9,25)          -175.1554         estimate D2E/DX2                !
 ! D49   D(6,7,9,26)            71.2513         estimate D2E/DX2                !
 ! D50   D(8,7,9,10)            68.8387         estimate D2E/DX2                !
 ! D51   D(8,7,9,25)           -51.8866         estimate D2E/DX2                !
 ! D52   D(8,7,9,26)          -165.4799         estimate D2E/DX2                !
 ! D53   D(23,7,9,10)         -176.8755         estimate D2E/DX2                !
 ! D54   D(23,7,9,25)           62.3992         estimate D2E/DX2                !
 ! D55   D(23,7,9,26)          -51.1941         estimate D2E/DX2                !
 ! D56   D(7,9,10,11)          139.2302         estimate D2E/DX2                !
 ! D57   D(7,9,10,12)          -42.3688         estimate D2E/DX2                !
 ! D58   D(25,9,10,11)         -99.1255         estimate D2E/DX2                !
 ! D59   D(25,9,10,12)          79.2756         estimate D2E/DX2                !
 ! D60   D(26,9,10,11)          12.8083         estimate D2E/DX2                !
 ! D61   D(26,9,10,12)        -168.7906         estimate D2E/DX2                !
 ! D62   D(9,10,11,27)         178.5442         estimate D2E/DX2                !
 ! D63   D(12,10,11,27)          0.1417         estimate D2E/DX2                !
 ! D64   D(6,13,14,29)          56.8117         estimate D2E/DX2                !
 ! D65   D(6,13,14,30)         175.8012         estimate D2E/DX2                !
 ! D66   D(6,13,14,31)         -65.2996         estimate D2E/DX2                !
 ! D67   D(15,13,14,29)        -56.5715         estimate D2E/DX2                !
 ! D68   D(15,13,14,30)         62.4181         estimate D2E/DX2                !
 ! D69   D(15,13,14,31)       -178.6828         estimate D2E/DX2                !
 ! D70   D(28,13,14,29)       -175.5645         estimate D2E/DX2                !
 ! D71   D(28,13,14,30)        -56.575          estimate D2E/DX2                !
 ! D72   D(28,13,14,31)         62.3242         estimate D2E/DX2                !
 ! D73   D(6,13,15,4)          -13.1092         estimate D2E/DX2                !
 ! D74   D(14,13,15,4)         111.9618         estimate D2E/DX2                !
 ! D75   D(28,13,15,4)        -129.2105         estimate D2E/DX2                !
 ! D76   D(3,16,17,18)         179.9234         estimate D2E/DX2                !
 ! D77   D(3,16,17,19)          -0.0537         estimate D2E/DX2                !
 ! D78   D(32,16,17,18)          0.1442         estimate D2E/DX2                !
 ! D79   D(32,16,17,19)       -179.8329         estimate D2E/DX2                !
 ! D80   D(16,17,19,20)         -0.1095         estimate D2E/DX2                !
 ! D81   D(16,17,19,33)        179.9852         estimate D2E/DX2                !
 ! D82   D(18,17,19,20)        179.9134         estimate D2E/DX2                !
 ! D83   D(18,17,19,33)          0.0081         estimate D2E/DX2                !
 ! D84   D(17,19,20,2)           0.078          estimate D2E/DX2                !
 ! D85   D(17,19,20,34)       -179.7859         estimate D2E/DX2                !
 ! D86   D(33,19,20,2)         179.9833         estimate D2E/DX2                !
 ! D87   D(33,19,20,34)          0.1194         estimate D2E/DX2                !
 --------------------------------------------------------------------------------
 Trust Radius=3.00D-01 FncErr=1.00D-07 GrdErr=1.00D-06
 Number of steps in this run=    191 maximum allowed number of steps=    204.
 GradGradGradGradGradGradGradGradGradGradGradGradGradGradGradGradGradGrad

                          Input orientation:                          
 ---------------------------------------------------------------------
 Center     Atomic      Atomic             Coordinates (Angstroms)
 Number     Number       Type             X           Y           Z
 ---------------------------------------------------------------------
      1          8           0       -0.435425    0.573556   -1.762009
      2          6           0       -1.231521    1.634993   -1.435380
      3          6           0       -0.710732    2.886123   -0.997853
      4          6           0        0.740632    3.165397   -0.830155
      5          7           0        1.635327    2.268094   -0.800340
      6          6           0        2.901167    2.910685   -0.576369
      7          6           0        4.083518    2.201086   -1.302295
      8          8           0        4.170249    0.902894   -0.744807
      9          6           0        4.102665    2.094297   -2.856611
     10          6           0        2.879995    1.468367   -3.540070
     11          8           0        2.533960    2.131935   -4.674093
     12          8           0        2.300921    0.466891   -3.128369
     13          6           0        2.635202    4.417871   -0.767060
     14          6           0        3.072568    5.085639   -2.078524
     15          8           0        1.221935    4.440746   -0.720980
     16          6           0       -1.607252    3.936557   -0.699594
     17          6           0       -2.996138    3.752701   -0.826424
     18         17           0       -4.073468    5.047614   -0.455300
     19          6           0       -3.505977    2.514225   -1.254919
     20          6           0       -2.624426    1.460332   -1.558681
     21          1           0        0.493019    0.774885   -1.657960
     22          1           0        3.117227    2.800599    0.490042
     23          1           0        4.999572    2.716666   -1.010806
     24          1           0        3.306111    0.516712   -0.838642
     25          1           0        4.963357    1.491969   -3.147998
     26          1           0        4.293985    3.068172   -3.300940
     27          1           0        1.793246    1.698884   -5.070562
     28          1           0        3.037200    4.981647    0.076083
     29          1           0        2.627844    4.598577   -2.946351
     30          1           0        2.753650    6.127906   -2.097672
     31          1           0        4.156992    5.079284   -2.185959
     32          1           0       -1.235497    4.894650   -0.366294
     33          1           0       -4.572409    2.373006   -1.352065
     34          1           0       -3.018775    0.510908   -1.891023
 ---------------------------------------------------------------------
                    Distance matrix (angstroms):
                    1          2          3          4          5
     1  O    0.000000
     2  C    1.366420   0.000000
     3  C    2.451060   1.424071   0.000000
     4  C    2.994846   2.568622   1.487472   0.000000
     5  N    2.843287   3.003816   2.434125   1.267486   0.000000
     6  C    4.242730   4.409580   3.636491   2.190250   1.437163
     7  C    4.825043   5.346757   4.852504   3.511082   2.500018
     8  O    4.728149   5.494723   5.274581   4.109559   2.879702
     9  C    4.909691   5.539350   5.220226   4.069035   3.216553
    10  C    3.867066   4.621910   4.622361   3.847132   3.113661
    11  O    4.441399   4.991499   4.961005   4.365768   3.978950
    12  O    3.060377   4.087642   4.411557   3.872754   3.017792
    13  C    5.019704   4.810676   3.687112   2.272018   2.371160
    14  C    5.724080   5.553897   4.507669   3.268590   3.411448
    15  O    4.334252   3.795005   2.495739   1.367511   2.213054
    16  C    3.716407   2.445353   1.412840   2.474731   3.648046
    17  C    4.188023   2.823010   2.450189   3.782643   4.863662
    18  Cl   5.912702   4.547879   4.034154   5.182549   6.358862
    19  C    3.667646   2.445151   2.831569   4.317191   5.167226
    20  C    2.370536   1.409217   2.451455   3.842084   4.401483
    21  H    0.955703   1.939940   2.518349   2.541874   2.066411
    22  H    4.759495   4.896682   4.107848   2.743028   2.035847
    23  H    5.890367   6.338517   5.712833   4.286323   3.400538
    24  H    3.854209   4.711343   4.666314   3.687450   2.420811
    25  H    5.649008   6.428844   6.225920   5.099428   4.146040
    26  H    5.564058   6.005459   5.512218   4.329036   3.736521
    27  H    4.144860   4.729466   4.926094   4.608656   4.310886
    28  H    5.904996   5.630861   4.426235   3.065005   3.177536
    29  H    5.194909   5.095151   4.227911   3.177083   3.319880
    30  H    6.413554   6.042060   4.870390   3.799382   4.222779
    31  H    6.447605   6.439144   5.469578   4.143994   4.022626
    32  H    4.610856   3.430499   2.169891   2.666565   3.915204
    33  H    4.529979   3.422446   3.911688   5.397099   6.233089
    34  H    2.587328   2.159966   3.430228   4.722806   5.092932
                    6          7          8          9         10
     6  C    0.000000
     7  C    1.558350   0.000000
     8  O    2.381211   1.415492   0.000000
     9  C    2.703625   1.558098   2.425639   0.000000
    10  C    3.296097   2.644425   3.130177   1.534219   0.000000
    11  O    4.187199   3.711460   4.430268   2.401144   1.358702
    12  O    3.584010   3.085390   3.060368   2.443069   1.227916
    13  C    1.542307   2.701524   3.835613   3.452342   4.055747
    14  C    2.648825   3.153601   4.525380   3.258013   3.906131
    15  O    2.276361   3.680036   4.605379   4.285481   4.419442
    16  C    4.625304   5.979964   6.525693   6.375719   5.856249
    17  C    5.962359   7.263298   7.712663   7.567362   6.863745
    18  Cl   7.295660   8.680815   9.231543   9.018732   8.406989
    19  C    6.455161   7.596100   7.860092   7.786732   6.862680
    20  C    5.796606   6.753589   6.865911   6.880428   5.850181
    21  H    3.395682   3.879720   3.791076   4.025811   3.117837
    22  H    1.093633   2.122641   2.496997   3.559500   4.251226
    23  H    2.151670   1.090845   2.012039   2.144477   3.528177
    24  H    2.442104   1.912185   0.951145   2.682438   2.895675
    25  H    3.588685   2.164159   2.598337   1.090182   2.120065
    26  H    3.063989   2.188771   3.352246   1.087412   2.148471
    27  H    4.784738   4.438174   4.999590   3.223561   1.891181
    28  H    2.175565   3.275092   4.312063   4.251200   5.044245
    29  H    2.922413   3.251134   4.569889   2.907674   3.195981
    30  H    3.561830   4.221503   5.580121   4.320397   4.879322
    31  H    2.978372   3.011691   4.418068   3.059881   4.062396
    32  H    4.592629   6.035172   6.730489   6.522241   6.224913
    33  H    7.532937   8.657777   8.886172   8.808987   7.819467
    34  H    6.521730   7.324334   7.290372   7.358967   6.199320
                   11         12         13         14         15
    11  O    0.000000
    12  O    2.283844   0.000000
    13  C    4.527765   4.614950   0.000000
    14  C    3.968809   4.799005   1.535298   0.000000
    15  O    4.762260   4.769828   1.414203   2.384042   0.000000
    16  C    6.016888   5.762929   4.270203   5.012240   2.873841
    17  C    6.929172   6.644873   5.670799   6.338270   4.275122
    18  Cl   8.364060   8.292235   6.745371   7.328174   5.336681
    19  C    6.951096   6.435950   6.447942   7.111100   5.133198
    20  C    6.063480   5.264018   6.085835   6.772653   4.937520
    21  H    3.886397   2.350632   4.319027   5.041185   3.853283
    22  H    5.239809   4.382402   2.104334   3.438158   2.783665
    23  H    4.454304   4.102228   2.922970   3.235027   4.162570
    24  H    4.232712   2.501147   3.959076   4.739931   4.444736
    25  H    2.939471   2.853022   4.432840   4.199205   5.346395
    26  H    2.420698   3.281577   3.315689   2.656376   4.240005
    27  H    0.945187   2.355346   5.159642   4.696708   5.173303
    28  H    5.562219   5.585127   1.091025   2.157405   2.055011
    29  H    3.013010   4.148595   2.186783   1.090015   2.637000
    30  H    4.759621   5.771862   2.169972   1.090136   2.662319
    31  H    4.184723   5.060366   2.183251   1.089751   3.341924
    32  H    6.355984   6.303996   3.920490   4.639788   2.524045
    33  H    7.848214   7.350592   7.514876   8.144433   6.184516
    34  H    6.419196   5.461880   6.963843   7.620222   5.898835
                   16         17         18         19         20
    16  C    0.000000
    17  C    1.406731   0.000000
    18  Cl   2.715943   1.724869   0.000000
    19  C    2.436508   1.406189   2.716523   0.000000
    20  C    2.811470   2.435021   4.023154   1.407158   0.000000
    21  H    3.914815   4.661873   6.368313   4.379465   3.193455
    22  H    5.002633   6.325568   7.592683   6.855197   6.241807
    23  H    6.725705   8.064660   9.384133   8.511459   7.746218
    24  H    5.987972   7.084498   8.667999   7.111110   6.048152
    25  H    7.425873   8.593845  10.077571   8.738328   7.752508
    26  H    6.507357   7.729017   9.057048   8.082850   7.313346
    27  H    5.972933   6.720794   8.181257   6.580705   5.648543
    28  H    4.823362   6.223021   7.130801   7.118490   6.864847
    29  H    4.839651   6.069495   7.163418   6.695463   6.273799
    30  H    5.076820   6.349625   7.104503   7.276802   7.141461
    31  H    6.061486   7.401042   8.410509   8.134338   7.712193
    32  H    1.080386   2.148400   2.843484   3.407515   3.891716
    33  H    3.415050   2.159742   2.864726   1.080119   2.161088
    34  H    3.891911   3.412199   4.873949   2.157608   1.080448
                   21         22         23         24         25
    21  H    0.000000
    22  H    3.950177   0.000000
    23  H    4.949580   2.408903   0.000000
    24  H    2.941330   2.649003   2.781591   0.000000
    25  H    4.766376   4.284395   2.463490   3.005115   0.000000
    26  H    4.733486   3.978429   2.422008   3.680863   1.719263
    27  H    3.766990   5.821256   5.272383   4.647089   3.713310
    28  H    5.213119   2.221427   3.187847   4.565597   5.126659
    29  H    4.564871   3.909094   3.593469   4.643717   3.891824
    30  H    5.827404   4.230771   4.226346   5.777185   5.241937
    31  H    5.677264   3.665310   2.769998   4.832838   3.800602
    32  H    4.650659   4.905565   6.635894   6.325793   7.598810
    33  H    5.320350   7.918756   9.584226   8.110518   9.743328
    34  H    3.529405   6.968693   8.362657   6.411842   8.139834
                   26         27         28         29         30
    26  H    0.000000
    27  H    3.355623   0.000000
    28  H    4.079850   6.229920   0.000000
    29  H    2.289956   3.690128   3.073991   0.000000
    30  H    3.630765   5.420026   2.473767   1.753548   0.000000
    31  H    2.303589   5.033422   2.525926   1.774139   1.754073
    32  H    6.520992   6.443318   4.296418   4.655079   4.520164
    33  H    9.104631   7.402920   8.170114   7.703152   8.265975
    34  H    7.874257   5.888659   7.780221   7.050323   8.056939
                   31         32         33         34
    31  H    0.000000
    32  H    5.694226   0.000000
    33  H    9.177242   4.297140   0.000000
    34  H    8.511679   4.972130   2.484283   0.000000
 Stoichiometry    C13H14ClNO5
 Framework group  C1[X(C13H14ClNO5)]
 Deg. of freedom    96
 Full point group                 C1      NOp   1
 Largest Abelian subgroup         C1      NOp   1
 Largest concise Abelian subgroup C1      NOp   1
                         Standard orientation:                         
 ---------------------------------------------------------------------
 Center     Atomic      Atomic             Coordinates (Angstroms)
 Number     Number       Type             X           Y           Z
 ---------------------------------------------------------------------
      1          8           0        0.422137   -2.345263   -0.631539
      2          6           0        1.492275   -1.524351   -0.412421
      3          6           0        1.375763   -0.107376   -0.331284
      4          6           0        0.093412    0.628360   -0.495123
      5          7           0       -0.960689    0.115016   -0.976652
      6          6           0       -1.970666    1.136404   -1.023014
      7          6           0       -3.406783    0.587600   -0.768384
      8          8           0       -3.679226   -0.316662   -1.822757
      9          6           0       -3.762389   -0.086638    0.590519
     10          6           0       -2.882008   -1.253949    1.055428
     11          8           0       -2.626396   -1.200717    2.388807
     12          8           0       -2.481192   -2.148624    0.316048
     13          6           0       -1.405296    2.309742   -0.196972
     14          6           0       -1.929831    2.530373    1.228975
     15          8           0       -0.045917    1.931165   -0.103494
     16          6           0        2.533195    0.663613   -0.082193
     17          6           0        3.786511    0.045471    0.079031
     18         17           0        5.187520    1.005398    0.380504
     19          6           0        3.897363   -1.353763   -0.005955
     20          6           0        2.752264   -2.134270   -0.250187
     21          1           0       -0.393562   -1.855913   -0.723950
     22          1           0       -1.987433    1.505456   -2.052360
     23          1           0       -4.099894    1.419942   -0.897799
     24          1           0       -2.965668   -0.945558   -1.822563
     25          1           0       -4.780098   -0.472077    0.525707
     26          1           0       -3.807221    0.657347    1.382314
     27          1           0       -2.102039   -1.948554    2.632051
     28          1           0       -1.487119    3.241095   -0.759309
     29          1           0       -1.794469    1.644501    1.849492
     30          1           0       -1.387740    3.344538    1.710295
     31          1           0       -2.984794    2.803516    1.227093
     32          1           0        2.469366    1.740083   -0.016073
     33          1           0        4.859737   -1.828344    0.117602
     34          1           0        2.839802   -3.209417   -0.311541
 ---------------------------------------------------------------------
 Rotational constants (GHZ):      0.5627713      0.1764586      0.1559395
 Standard basis: 6-31+G(d,p) (6D, 7F)
 There are   454 symmetry adapted basis functions of A   symmetry.
 Integral buffers will be    131072 words long.
 Raffenetti 2 integral format.
 Two-electron integral symmetry is turned on.
   454 basis functions,   762 primitive gaussians,   454 cartesian basis functions
    78 alpha electrons       78 beta electrons
       nuclear repulsion energy      1731.2516960081 Hartrees.
 NAtoms=   34 NActive=   34 NUniq=   34 SFac= 1.00D+00 NAtFMM=   50 NAOKFM=F Big=F
 Using the following non-standard input for PCM:
 radii=UA0
 --- end of non-standard input.
 ------------------------------------------------------------------------------
 United Atom Topological Model (UA0  parameters set).
  Nord Group  Hybr  Charge Alpha Radius          Bonded to
    1   OH    *     0.00   1.10  1.850   C2   [s]
    2   C     *     0.00   1.10  1.925   O1   [s]  C3   [s]  C20  [s]
    3   C     *     0.00   1.10  1.925   C2   [s]  C4   [s]  C16  [s]
    4   C     *     0.00   1.10  1.925   C3   [s]  N5   [d]  O15  [s]
    5   N     *     0.00   1.10  1.830   C4   [d]  C6   [s]
    6   CH    *     0.00   1.10  2.125   N5   [s]  C7   [s]  C13  [s]
    7   CH    *     0.00   1.10  2.125   C6   [s]  O8   [s]  C9   [s]
    8   OH    *     0.00   1.10  1.850   C7   [s]
    9   CH2   *     0.00   1.10  2.325   C7   [s]  C10  [s]
   10   C     *     0.00   1.10  1.925   C9   [s]  O11  [s]  O12  [d]
   11   OH    *     0.00   1.10  1.850   C10  [s]
   12   O     *     0.00   1.10  1.750   C10  [d]
   13   CH    *     0.00   1.10  2.125   C6   [s]  C14  [s]  O15  [s]
   14   CH3   *     0.00   1.10  2.525   C13  [s]
   15   O     *     0.00   1.10  1.750   C4   [s]  C13  [s]
   16   CH    *     0.00   1.10  2.125   C3   [s]  C17  [s]
   17   C     *     0.00   1.10  1.925   C16  [s] Cl18  [s]  C19  [s]
   18  Cl     *     0.00   1.10  1.973   C17  [s]
   19   CH    *     0.00   1.10  2.125   C17  [s]  C20  [s]
   20   CH    *     0.00   1.10  2.125   C2   [s]  C19  [s]
 ------------------------------------------------------------------------------
 Polarizable Continuum Model (PCM)
 =================================
 Model                : PCM.
 Atomic radii         : UA0 (Simple United Atom Topological Model).
 Polarization charges : Total charges.
 Charge compensation  : None.
 Solution method      : Matrix inversion.
 Cavity type          : Scaled VdW (van der Waals Surface) (Alpha=1.100).
 Cavity algorithm     : GePol (No added spheres)
                        Default sphere list used, NSphG=   20.
                        Lebedev-Laikov grids with approx.  5.0 points / Ang**2.
                        Smoothing algorithm: Karplus/York (Gamma=1.0000).
                        Polarization charges: spherical gaussians, with
                                              point-specific exponents (IZeta= 3).
                        Self-potential: point-specific (ISelfS= 7).
                        Self-field    : sphere-specific E.n sum rule (ISelfD= 2).
 1st derivatives      : Analytical E(r).r(x)/FMM algorithm (CHGder, D1EAlg=3).
                        Cavity 1st derivative terms included.
 Solvent              : Methanol, Eps=  32.613000 Eps(inf)=   1.765709
 ------------------------------------------------------------------------------
 Spheres list:
 ISph  on   Nord    Re0     Alpha      Xe            Ye            Ze
    1   O      1    1.850   1.100      0.422137     -2.345263     -0.631539
    2   C      2    1.925   1.100      1.492275     -1.524351     -0.412421
    3   C      3    1.925   1.100      1.375763     -0.107376     -0.331284
    4   C      4    1.925   1.100      0.093412      0.628360     -0.495123
    5   N      5    1.830   1.100     -0.960689      0.115016     -0.976652
    6   C      6    2.125   1.100     -1.970666      1.136404     -1.023014
    7   C      7    2.125   1.100     -3.406783      0.587600     -0.768384
    8   O      8    1.850   1.100     -3.679226     -0.316662     -1.822757
    9   C      9    2.325   1.100     -3.762389     -0.086638      0.590519
   10   C     10    1.925   1.100     -2.882008     -1.253949      1.055428
   11   O     11    1.850   1.100     -2.626396     -1.200717      2.388807
   12   O     12    1.750   1.100     -2.481192     -2.148624      0.316048
   13   C     13    2.125   1.100     -1.405296      2.309742     -0.196972
   14   C     14    2.525   1.100     -1.929831      2.530373      1.228975
   15   O     15    1.750   1.100     -0.045917      1.931165     -0.103494
   16   C     16    2.125   1.100      2.533195      0.663613     -0.082193
   17   C     17    1.925   1.100      3.786511      0.045471      0.079031
   18  Cl     18    1.973   1.100      5.187520      1.005398      0.380504
   19   C     19    2.125   1.100      3.897363     -1.353763     -0.005955
   20   C     20    2.125   1.100      2.752264     -2.134270     -0.250187
 ------------------------------------------------------------------------------
 One-electron integrals computed using PRISM.
 NBasis=   454 RedAO= T  NBF=   454
 NBsUse=   453 1.00D-06 NBFU=   453
 Harris functional with IExCor= 1009 diagonalized for initial guess.
 ExpMin= 4.38D-02 ExpMax= 2.52D+04 ExpMxC= 3.78D+03 IAcc=3 IRadAn=         5 AccDes= 0.00D+00
 HarFok:  IExCor= 1009 AccDes= 0.00D+00 IRadAn=         5 IDoV= 1
 ScaDFX=  1.000000  1.000000  1.000000  1.000000
 FoFCou: FMM=F IPFlag=           0 FMFlag=      100000 FMFlg1=           0
         NFxFlg=           0 DoJE=T BraDBF=F KetDBF=T FulRan=T
         Omega=  0.000000  0.000000  1.000000  0.000000  0.000000 ICntrl=     500 IOpCl=  0
         NMat0=    1 NMatS0=    1 NMatT0=    0 NMatD0=    1 NMtDS0=    0 NMtDT0=    0
         I1Cent=           4 NGrid=           0.
 Petite list used in FoFCou.
 Initial guess orbital symmetries:
       Occupied  (A) (A) (A) (A) (A) (A) (A) (A) (A) (A) (A) (A)
                 (A) (A) (A) (A) (A) (A) (A) (A) (A) (A) (A) (A)
                 (A) (A) (A) (A) (A) (A) (A) (A) (A) (A) (A) (A)
                 (A) (A) (A) (A) (A) (A) (A) (A) (A) (A) (A) (A)
                 (A) (A) (A) (A) (A) (A) (A) (A) (A) (A) (A) (A)
                 (A) (A) (A) (A) (A) (A) (A) (A) (A) (A) (A) (A)
                 (A) (A) (A) (A) (A) (A)
       Virtual   (A) (A) (A) (A) (A) (A) (A) (A) (A) (A) (A) (A)
                 (A) (A) (A) (A) (A) (A) (A) (A) (A) (A) (A) (A)
                 (A) (A) (A) (A) (A) (A) (A) (A) (A) (A) (A) (A)
                 (A) (A) (A) (A) (A) (A) (A) (A) (A) (A) (A) (A)
                 (A) (A) (A) (A) (A) (A) (A) (A) (A) (A) (A) (A)
                 (A) (A) (A) (A) (A) (A) (A) (A) (A) (A) (A) (A)
                 (A) (A) (A) (A) (A) (A) (A) (A) (A) (A) (A) (A)
                 (A) (A) (A) (A) (A) (A) (A) (A) (A) (A) (A) (A)
                 (A) (A) (A) (A) (A) (A) (A) (A) (A) (A) (A) (A)
                 (A) (A) (A) (A) (A) (A) (A) (A) (A) (A) (A) (A)
                 (A) (A) (A) (A) (A) (A) (A) (A) (A) (A) (A) (A)
                 (A) (A) (A) (A) (A) (A) (A) (A) (A) (A) (A) (A)
                 (A) (A) (A) (A) (A) (A) (A) (A) (A) (A) (A) (A)
                 (A) (A) (A) (A) (A) (A) (A) (A) (A) (A) (A) (A)
                 (A) (A) (A) (A) (A) (A) (A) (A) (A) (A) (A) (A)
                 (A) (A) (A) (A) (A) (A) (A) (A) (A) (A) (A) (A)
                 (A) (A) (A) (A) (A) (A) (A) (A) (A) (A) (A) (A)
                 (A) (A) (A) (A) (A) (A) (A) (A) (A) (A) (A) (A)
                 (A) (A) (A) (A) (A) (A) (A) (A) (A) (A) (A) (A)
                 (A) (A) (A) (A) (A) (A) (A) (A) (A) (A) (A) (A)
                 (A) (A) (A) (A) (A) (A) (A) (A) (A) (A) (A) (A)
                 (A) (A) (A) (A) (A) (A) (A) (A) (A) (A) (A) (A)
                 (A) (A) (A) (A) (A) (A) (A) (A) (A) (A) (A) (A)
                 (A) (A) (A) (A) (A) (A) (A) (A) (A) (A) (A) (A)
                 (A) (A) (A) (A) (A) (A) (A) (A) (A) (A) (A) (A)
                 (A) (A) (A) (A) (A) (A) (A) (A) (A) (A) (A) (A)
                 (A) (A) (A) (A) (A) (A) (A) (A) (A) (A) (A) (A)
                 (A) (A) (A) (A) (A) (A) (A) (A) (A) (A) (A) (A)
                 (A) (A) (A) (A) (A) (A) (A) (A) (A) (A) (A) (A)
                 (A) (A) (A) (A) (A) (A) (A) (A) (A) (A) (A) (A)
                 (A) (A) (A) (A) (A) (A) (A) (A) (A) (A) (A) (A)
                 (A) (A) (A)
 The electronic state of the initial guess is 1-A.
 Requested convergence on RMS density matrix=1.00D-08 within 128 cycles.
 Requested convergence on MAX density matrix=1.00D-06.
 Requested convergence on             energy=1.00D-06.
 No special actions if energy rises.
 Error on total polarization charges =  0.01485
 SCF Done:  E(RM062X) =  -1394.55771277     A.U. after   16 cycles
             Convg  =    0.3970D-08             -V/T =  2.0067

 **********************************************************************

            Population analysis using the SCF density.

 **********************************************************************

 Orbital symmetries:
       Occupied  (A) (A) (A) (A) (A) (A) (A) (A) (A) (A) (A) (A)
                 (A) (A) (A) (A) (A) (A) (A) (A) (A) (A) (A) (A)
                 (A) (A) (A) (A) (A) (A) (A) (A) (A) (A) (A) (A)
                 (A) (A) (A) (A) (A) (A) (A) (A) (A) (A) (A) (A)
                 (A) (A) (A) (A) (A) (A) (A) (A) (A) (A) (A) (A)
                 (A) (A) (A) (A) (A) (A) (A) (A) (A) (A) (A) (A)
                 (A) (A) (A) (A) (A) (A)
       Virtual   (A) (A) (A) (A) (A) (A) (A) (A) (A) (A) (A) (A)
                 (A) (A) (A) (A) (A) (A) (A) (A) (A) (A) (A) (A)
                 (A) (A) (A) (A) (A) (A) (A) (A) (A) (A) (A) (A)
                 (A) (A) (A) (A) (A) (A) (A) (A) (A) (A) (A) (A)
                 (A) (A) (A) (A) (A) (A) (A) (A) (A) (A) (A) (A)
                 (A) (A) (A) (A) (A) (A) (A) (A) (A) (A) (A) (A)
                 (A) (A) (A) (A) (A) (A) (A) (A) (A) (A) (A) (A)
                 (A) (A) (A) (A) (A) (A) (A) (A) (A) (A) (A) (A)
                 (A) (A) (A) (A) (A) (A) (A) (A) (A) (A) (A) (A)
                 (A) (A) (A) (A) (A) (A) (A) (A) (A) (A) (A) (A)
                 (A) (A) (A) (A) (A) (A) (A) (A) (A) (A) (A) (A)
                 (A) (A) (A) (A) (A) (A) (A) (A) (A) (A) (A) (A)
                 (A) (A) (A) (A) (A) (A) (A) (A) (A) (A) (A) (A)
                 (A) (A) (A) (A) (A) (A) (A) (A) (A) (A) (A) (A)
                 (A) (A) (A) (A) (A) (A) (A) (A) (A) (A) (A) (A)
                 (A) (A) (A) (A) (A) (A) (A) (A) (A) (A) (A) (A)
                 (A) (A) (A) (A) (A) (A) (A) (A) (A) (A) (A) (A)
                 (A) (A) (A) (A) (A) (A) (A) (A) (A) (A) (A) (A)
                 (A) (A) (A) (A) (A) (A) (A) (A) (A) (A) (A) (A)
                 (A) (A) (A) (A) (A) (A) (A) (A) (A) (A) (A) (A)
                 (A) (A) (A) (A) (A) (A) (A) (A) (A) (A) (A) (A)
                 (A) (A) (A) (A) (A) (A) (A) (A) (A) (A) (A) (A)
                 (A) (A) (A) (A) (A) (A) (A) (A) (A) (A) (A) (A)
                 (A) (A) (A) (A) (A) (A) (A) (A) (A) (A) (A) (A)
                 (A) (A) (A) (A) (A) (A) (A) (A) (A) (A) (A) (A)
                 (A) (A) (A) (A) (A) (A) (A) (A) (A) (A) (A) (A)
                 (A) (A) (A) (A) (A) (A) (A) (A) (A) (A) (A) (A)
                 (A) (A) (A) (A) (A) (A) (A) (A) (A) (A) (A) (A)
                 (A) (A) (A) (A) (A) (A) (A) (A) (A) (A) (A) (A)
                 (A) (A) (A) (A) (A) (A) (A) (A) (A) (A) (A) (A)
                 (A) (A) (A) (A) (A) (A) (A) (A) (A) (A) (A) (A)
                 (A) (A) (A)
 The electronic state is 1-A.
 Alpha  occ. eigenvalues -- -102.68236 -19.70468 -19.69728 -19.68043 -19.65876
 Alpha  occ. eigenvalues --  -19.65012 -14.77010 -10.71336 -10.67347 -10.64827
 Alpha  occ. eigenvalues --  -10.62573 -10.62529 -10.62327 -10.59843 -10.59557
 Alpha  occ. eigenvalues --  -10.58750 -10.58510 -10.57493 -10.57450 -10.55059
 Alpha  occ. eigenvalues --   -9.82919  -7.55321  -7.54661  -7.54651  -1.24443
 Alpha  occ. eigenvalues --   -1.24170  -1.19313  -1.16357  -1.15129  -1.04335
 Alpha  occ. eigenvalues --   -1.00828  -0.95340  -0.91989  -0.88354  -0.86639
 Alpha  occ. eigenvalues --   -0.83568  -0.81565  -0.77339  -0.73566  -0.72366
 Alpha  occ. eigenvalues --   -0.69955  -0.68260  -0.67433  -0.63604  -0.60957
 Alpha  occ. eigenvalues --   -0.60611  -0.59866  -0.57917  -0.57634  -0.56357
 Alpha  occ. eigenvalues --   -0.55134  -0.54674  -0.53344  -0.53081  -0.51535
 Alpha  occ. eigenvalues --   -0.50995  -0.50111  -0.49425  -0.48610  -0.47901
 Alpha  occ. eigenvalues --   -0.47461  -0.46282  -0.46152  -0.45934  -0.45094
 Alpha  occ. eigenvalues --   -0.44708  -0.43919  -0.43051  -0.41015  -0.39898
 Alpha  occ. eigenvalues --   -0.38930  -0.38814  -0.37398  -0.36490  -0.35787
 Alpha  occ. eigenvalues --   -0.34224  -0.31517  -0.28510
 Alpha virt. eigenvalues --   -0.02995   0.00457   0.00818   0.01588   0.02051
 Alpha virt. eigenvalues --    0.02437   0.02664   0.03451   0.03548   0.04404
 Alpha virt. eigenvalues --    0.04474   0.04885   0.05433   0.05612   0.06213
 Alpha virt. eigenvalues --    0.06744   0.06871   0.07569   0.07974   0.08213
 Alpha virt. eigenvalues --    0.08418   0.08788   0.09210   0.10086   0.10469
 Alpha virt. eigenvalues --    0.10717   0.11153   0.11453   0.12747   0.12823
 Alpha virt. eigenvalues --    0.13146   0.13358   0.13914   0.14337   0.14717
 Alpha virt. eigenvalues --    0.14983   0.15098   0.15554   0.16353   0.16526
 Alpha virt. eigenvalues --    0.16696   0.17190   0.17521   0.18186   0.18450
 Alpha virt. eigenvalues --    0.18597   0.18919   0.18993   0.19893   0.20171
 Alpha virt. eigenvalues --    0.20452   0.20688   0.20950   0.21736   0.21994
 Alpha virt. eigenvalues --    0.22421   0.22561   0.23088   0.23356   0.23988
 Alpha virt. eigenvalues --    0.24225   0.24613   0.25003   0.25261   0.25517
 Alpha virt. eigenvalues --    0.25938   0.26133   0.26227   0.26979   0.27528
 Alpha virt. eigenvalues --    0.27772   0.28256   0.28413   0.29170   0.29505
 Alpha virt. eigenvalues --    0.29886   0.30146   0.30765   0.31017   0.31082
 Alpha virt. eigenvalues --    0.31707   0.31989   0.32214   0.33432   0.33611
 Alpha virt. eigenvalues --    0.34200   0.34960   0.35108   0.35433   0.36406
 Alpha virt. eigenvalues --    0.36904   0.37089   0.37817   0.38446   0.38985
 Alpha virt. eigenvalues --    0.39170   0.39895   0.40222   0.40834   0.41346
 Alpha virt. eigenvalues --    0.41640   0.41914   0.42919   0.43505   0.44178
 Alpha virt. eigenvalues --    0.44753   0.45970   0.46191   0.46527   0.48256
 Alpha virt. eigenvalues --    0.48786   0.50173   0.51096   0.52193   0.53453
 Alpha virt. eigenvalues --    0.55783   0.58577   0.59513   0.60937   0.64488
 Alpha virt. eigenvalues --    0.67188   0.68317   0.69083   0.69651   0.71020
 Alpha virt. eigenvalues --    0.71493   0.72426   0.73196   0.74233   0.74914
 Alpha virt. eigenvalues --    0.75499   0.75713   0.76785   0.77740   0.78514
 Alpha virt. eigenvalues --    0.79945   0.80258   0.81147   0.81812   0.82523
 Alpha virt. eigenvalues --    0.83499   0.83716   0.84745   0.85902   0.86919
 Alpha virt. eigenvalues --    0.87793   0.89057   0.89468   0.91376   0.92862
 Alpha virt. eigenvalues --    0.93360   0.93632   0.95032   0.96205   0.97141
 Alpha virt. eigenvalues --    0.97783   0.98849   0.99810   1.00359   1.02508
 Alpha virt. eigenvalues --    1.03397   1.04771   1.05590   1.06709   1.07859
 Alpha virt. eigenvalues --    1.08729   1.10497   1.11241   1.11593   1.12465
 Alpha virt. eigenvalues --    1.12731   1.13792   1.14238   1.14522   1.15882
 Alpha virt. eigenvalues --    1.16363   1.17572   1.18702   1.20014   1.21179
 Alpha virt. eigenvalues --    1.22036   1.23432   1.24357   1.25480   1.26585
 Alpha virt. eigenvalues --    1.27211   1.28214   1.29078   1.31052   1.31354
 Alpha virt. eigenvalues --    1.31893   1.33081   1.35127   1.35828   1.36779
 Alpha virt. eigenvalues --    1.38228   1.38627   1.39618   1.40326   1.40650
 Alpha virt. eigenvalues --    1.41132   1.41726   1.42622   1.43000   1.43609
 Alpha virt. eigenvalues --    1.44015   1.44415   1.45408   1.47412   1.48071
 Alpha virt. eigenvalues --    1.48623   1.50249   1.51819   1.52880   1.53869
 Alpha virt. eigenvalues --    1.55036   1.57182   1.57888   1.58258   1.59620
 Alpha virt. eigenvalues --    1.62011   1.62912   1.64430   1.66154   1.67498
 Alpha virt. eigenvalues --    1.69597   1.71826   1.73938   1.74286   1.76085
 Alpha virt. eigenvalues --    1.77208   1.77619   1.78775   1.81193   1.81823
 Alpha virt. eigenvalues --    1.82032   1.83210   1.84029   1.85536   1.86881
 Alpha virt. eigenvalues --    1.89954   1.90944   1.91140   1.91667   1.93588
 Alpha virt. eigenvalues --    1.94716   1.96093   1.96937   1.97055   1.98150
 Alpha virt. eigenvalues --    1.98940   2.00302   2.02588   2.03641   2.04488
 Alpha virt. eigenvalues --    2.05115   2.07056   2.08087   2.08603   2.09541
 Alpha virt. eigenvalues --    2.10374   2.11332   2.12001   2.14225   2.15618
 Alpha virt. eigenvalues --    2.17523   2.19279   2.19871   2.20803   2.22390
 Alpha virt. eigenvalues --    2.23466   2.24758   2.26366   2.26757   2.28298
 Alpha virt. eigenvalues --    2.29035   2.31073   2.32710   2.36696   2.38025
 Alpha virt. eigenvalues --    2.38686   2.40631   2.41152   2.41979   2.42735
 Alpha virt. eigenvalues --    2.43965   2.44776   2.46792   2.47695   2.48053
 Alpha virt. eigenvalues --    2.49158   2.49457   2.51480   2.53075   2.55095
 Alpha virt. eigenvalues --    2.55867   2.57154   2.58269   2.58684   2.59618
 Alpha virt. eigenvalues --    2.60022   2.61094   2.61660   2.65403   2.65626
 Alpha virt. eigenvalues --    2.67776   2.68804   2.70107   2.70284   2.71761
 Alpha virt. eigenvalues --    2.72106   2.73366   2.74382   2.75051   2.75791
 Alpha virt. eigenvalues --    2.78999   2.79906   2.80839   2.81598   2.83912
 Alpha virt. eigenvalues --    2.85242   2.87001   2.87903   2.90177   2.91985
 Alpha virt. eigenvalues --    2.92257   2.97412   2.99646   3.00546   3.01966
 Alpha virt. eigenvalues --    3.03782   3.06221   3.07434   3.09019   3.10876
 Alpha virt. eigenvalues --    3.13638   3.14542   3.21513   3.23663   3.25778
 Alpha virt. eigenvalues --    3.27494   3.32606   3.36181   3.38490   3.38789
 Alpha virt. eigenvalues --    3.44633   3.46200   3.47403   3.48640   3.52053
 Alpha virt. eigenvalues --    3.52216   3.59147   3.66731   3.67404   3.78522
 Alpha virt. eigenvalues --    4.27281   4.28377   4.31519   4.34911   4.36321
 Alpha virt. eigenvalues --    4.39950   4.40703   4.45436   4.46040   4.49268
 Alpha virt. eigenvalues --    4.51747   4.57737   4.59938   4.63716   4.66889
 Alpha virt. eigenvalues --    4.74198   4.76855   4.77671   4.88845   5.01181
          Condensed to atoms (all electrons):
              1          2          3          4          5          6
     1  O    8.407079   0.396827   0.157772  -0.058664  -0.011770   0.012129
     2  C    0.396827  19.075188  -5.077231   0.464735   0.135478  -0.556255
     3  C    0.157772  -5.077231  14.210396  -1.296620  -0.673606   0.862368
     4  C   -0.058664   0.464735  -1.296620   8.729115   0.629313  -1.158474
     5  N   -0.011770   0.135478  -0.673606   0.629313   7.615482  -0.897756
     6  C    0.012129  -0.556255   0.862368  -1.158474  -0.897756  11.575211
     7  C   -0.001643  -0.083058   0.029328  -0.017052   0.071298  -1.307438
     8  O    0.000735   0.003271  -0.010189   0.018591  -0.001841  -0.125265
     9  C   -0.001801   0.097398  -0.153423   0.047077   0.102030  -0.218927
    10  C   -0.001265  -0.130632   0.196256  -0.293529  -0.037249   0.405252
    11  O   -0.004147   0.019002  -0.003419  -0.009396  -0.012143   0.017500
    12  O    0.010716  -0.000340  -0.014546  -0.013939  -0.021298  -0.009568
    13  C   -0.005799   0.397651  -0.490500   0.212933   0.571641  -2.662728
    14  C    0.000516  -0.048295   0.031313  -0.091085   0.023546  -0.091838
    15  O   -0.004869  -0.040135  -0.085403   0.225789  -0.175636   0.077711
    16  C    0.110460  -3.248328   1.443288  -2.708988  -0.105201  -0.111316
    17  C   -0.024605  -1.132575  -1.701391   0.647663   0.082830  -0.097428
    18  Cl  -0.000253  -0.033031   0.003706   0.009583   0.000119  -0.000259
    19  C    0.044629   1.616693  -0.562852  -0.031926   0.011905  -0.068636
    20  C   -0.683411  -5.457883  -0.889486   0.151734   0.063256  -0.059396
    21  H    0.194173   0.046731  -0.151423   0.019183   0.052310   0.009915
    22  H    0.000062   0.016641  -0.046066   0.116510  -0.010671   0.118484
    23  H   -0.000011  -0.000688  -0.000094  -0.024370   0.009845  -0.015992
    24  H   -0.000920  -0.009209   0.006473  -0.035799   0.028563  -0.000590
    25  H   -0.000014   0.000001   0.001282  -0.001949  -0.001646   0.032883
    26  H   -0.000011   0.001362  -0.002199   0.005956  -0.013616   0.046022
    27  H   -0.000112  -0.000831  -0.000913  -0.004517   0.000004  -0.002829
    28  H   -0.000003  -0.002653   0.002726   0.021228  -0.000824   0.018373
    29  H   -0.000023  -0.000444  -0.004676  -0.008360   0.001192   0.058537
    30  H   -0.000002   0.001291   0.003149   0.002328  -0.002046   0.028025
    31  H    0.000002  -0.001379   0.003125  -0.007928  -0.007763   0.042401
    32  H   -0.000417   0.026820   0.001277   0.068896   0.000415   0.005913
    33  H   -0.000387  -0.046188   0.006174  -0.009332   0.000035  -0.000070
    34  H   -0.003546   0.043775   0.015910   0.000496   0.000399   0.000119
              7          8          9         10         11         12
     1  O   -0.001643   0.000735  -0.001801  -0.001265  -0.004147   0.010716
     2  C   -0.083058   0.003271   0.097398  -0.130632   0.019002  -0.000340
     3  C    0.029328  -0.010189  -0.153423   0.196256  -0.003419  -0.014546
     4  C   -0.017052   0.018591   0.047077  -0.293529  -0.009396  -0.013939
     5  N    0.071298  -0.001841   0.102030  -0.037249  -0.012143  -0.021298
     6  C   -1.307438  -0.125265  -0.218927   0.405252   0.017500  -0.009568
     7  C    7.553416   0.372880  -0.204467  -0.704900   0.026647   0.149231
     8  O    0.372880   8.208623  -0.157828  -0.038801   0.000977   0.023558
     9  C   -0.204467  -0.157828   6.638186  -0.190369  -0.211659  -0.267271
    10  C   -0.704900  -0.038801  -0.190369   5.547814   0.309273   0.519648
    11  O    0.026647   0.000977  -0.211659   0.309273   8.177897  -0.139049
    12  O    0.149231   0.023558  -0.267271   0.519648  -0.139049   8.249506
    13  C   -0.279351   0.036112   0.151390   0.131567  -0.003049  -0.046362
    14  C    0.110039  -0.011638  -0.062204  -0.022453  -0.009933   0.002879
    15  O    0.014054  -0.003722  -0.000017  -0.003788  -0.000198  -0.000007
    16  C    0.030913  -0.008725  -0.065588   0.055555   0.001720  -0.011274
    17  C    0.031640  -0.000319   0.007488  -0.018955  -0.000623   0.000960
    18  Cl   0.000137  -0.000002   0.000001  -0.000048   0.000005  -0.000001
    19  C   -0.010538   0.000064   0.001862   0.002183   0.000647  -0.003002
    20  C    0.025106  -0.001193   0.013713  -0.024211   0.004167   0.025330
    21  H    0.004036  -0.000679  -0.000598   0.001252   0.000161  -0.000610
    22  H    0.005246   0.001762  -0.000415  -0.009851   0.000028  -0.000785
    23  H    0.392438  -0.052424  -0.043904   0.012431  -0.000421   0.000846
    24  H   -0.003395   0.262257  -0.010805   0.018607  -0.000043   0.003620
    25  H   -0.009240  -0.004127   0.323198  -0.001102   0.001650  -0.004163
    26  H   -0.023774   0.009308   0.385016  -0.059089   0.001575   0.010985
    27  H   -0.000532  -0.000047   0.032198  -0.004419   0.248635   0.002891
    28  H   -0.039432  -0.000616   0.001431   0.001122  -0.000037   0.000032
    29  H   -0.068403  -0.000405   0.016432   0.008623  -0.003081  -0.000253
    30  H   -0.000852   0.000045   0.002152   0.000346   0.000144   0.000013
    31  H    0.028671  -0.000122  -0.024867   0.002165   0.000063   0.000091
    32  H   -0.000041   0.000000  -0.000027   0.000092   0.000001   0.000000
    33  H   -0.000007   0.000000   0.000000  -0.000002   0.000000   0.000000
    34  H    0.000012   0.000000  -0.000022   0.000021   0.000001  -0.000009
             13         14         15         16         17         18
     1  O   -0.005799   0.000516  -0.004869   0.110460  -0.024605  -0.000253
     2  C    0.397651  -0.048295  -0.040135  -3.248328  -1.132575  -0.033031
     3  C   -0.490500   0.031313  -0.085403   1.443288  -1.701391   0.003706
     4  C    0.212933  -0.091085   0.225789  -2.708988   0.647663   0.009583
     5  N    0.571641   0.023546  -0.175636  -0.105201   0.082830   0.000119
     6  C   -2.662728  -0.091838   0.077711  -0.111316  -0.097428  -0.000259
     7  C   -0.279351   0.110039   0.014054   0.030913   0.031640   0.000137
     8  O    0.036112  -0.011638  -0.003722  -0.008725  -0.000319  -0.000002
     9  C    0.151390  -0.062204  -0.000017  -0.065588   0.007488   0.000001
    10  C    0.131567  -0.022453  -0.003788   0.055555  -0.018955  -0.000048
    11  O   -0.003049  -0.009933  -0.000198   0.001720  -0.000623   0.000005
    12  O   -0.046362   0.002879  -0.000007  -0.011274   0.000960  -0.000001
    13  C    8.220507  -0.124658  -0.088631  -0.370535   0.086719   0.000193
    14  C   -0.124658   5.654988  -0.102732   0.060322   0.002787   0.000253
    15  O   -0.088631  -0.102732   8.481138  -0.047386   0.062839  -0.000763
    16  C   -0.370535   0.060322  -0.047386  18.025658  -2.927960  -0.143125
    17  C    0.086719   0.002787   0.062839  -2.927960   9.230440  -0.074381
    18  Cl   0.000193   0.000253  -0.000763  -0.143125  -0.074381  17.033148
    19  C    0.030354   0.000335  -0.004398  -1.939653   0.618582  -0.127294
    20  C    0.028558  -0.008608   0.015418  -1.764843   1.221977   0.108456
    21  H   -0.006121  -0.000059   0.001496  -0.041428   0.007191   0.000014
    22  H    0.076712   0.007323   0.003222   0.006702   0.002282   0.000006
    23  H    0.026346  -0.020824  -0.000358  -0.000571   0.000020   0.000000
    24  H    0.002135  -0.002218   0.000506  -0.000927   0.000246   0.000000
    25  H   -0.001649   0.002804   0.000044  -0.000010  -0.000012   0.000000
    26  H   -0.040986  -0.004838  -0.000262  -0.000015   0.000001   0.000000
    27  H    0.001057  -0.001063   0.000066  -0.000845   0.000251   0.000000
    28  H    0.372399  -0.040323  -0.042956   0.008803   0.000025  -0.000006
    29  H   -0.099262   0.439807   0.003987   0.013007   0.000923   0.000007
    30  H   -0.050224   0.397283  -0.004699  -0.010190  -0.000648  -0.000003
    31  H   -0.095043   0.404254   0.009567  -0.000889  -0.000165  -0.000001
    32  H    0.002288  -0.000519   0.004126   0.207236  -0.014420  -0.003014
    33  H   -0.000034  -0.000003   0.000007   0.122278   0.080756  -0.007674
    34  H   -0.000001   0.000002   0.000013   0.002201  -0.003991   0.000925
             19         20         21         22         23         24
     1  O    0.044629  -0.683411   0.194173   0.000062  -0.000011  -0.000920
     2  C    1.616693  -5.457883   0.046731   0.016641  -0.000688  -0.009209
     3  C   -0.562852  -0.889486  -0.151423  -0.046066  -0.000094   0.006473
     4  C   -0.031926   0.151734   0.019183   0.116510  -0.024370  -0.035799
     5  N    0.011905   0.063256   0.052310  -0.010671   0.009845   0.028563
     6  C   -0.068636  -0.059396   0.009915   0.118484  -0.015992  -0.000590
     7  C   -0.010538   0.025106   0.004036   0.005246   0.392438  -0.003395
     8  O    0.000064  -0.001193  -0.000679   0.001762  -0.052424   0.262257
     9  C    0.001862   0.013713  -0.000598  -0.000415  -0.043904  -0.010805
    10  C    0.002183  -0.024211   0.001252  -0.009851   0.012431   0.018607
    11  O    0.000647   0.004167   0.000161   0.000028  -0.000421  -0.000043
    12  O   -0.003002   0.025330  -0.000610  -0.000785   0.000846   0.003620
    13  C    0.030354   0.028558  -0.006121   0.076712   0.026346   0.002135
    14  C    0.000335  -0.008608  -0.000059   0.007323  -0.020824  -0.002218
    15  O   -0.004398   0.015418   0.001496   0.003222  -0.000358   0.000506
    16  C   -1.939653  -1.764843  -0.041428   0.006702  -0.000571  -0.000927
    17  C    0.618582   1.221977   0.007191   0.002282   0.000020   0.000246
    18  Cl  -0.127294   0.108456   0.000014   0.000006   0.000000   0.000000
    19  C    7.791214  -1.182866  -0.009228   0.000523  -0.000023  -0.000255
    20  C   -1.182866  13.719685   0.125581  -0.000625   0.000141   0.000767
    21  H   -0.009228   0.125581   0.304188  -0.000028   0.000001   0.000119
    22  H    0.000523  -0.000625  -0.000028   0.526053  -0.005546  -0.002134
    23  H   -0.000023   0.000141   0.000001  -0.005546   0.536694   0.006230
    24  H   -0.000255   0.000767   0.000119  -0.002134   0.006230   0.325803
    25  H    0.000000   0.000059  -0.000001  -0.000079  -0.004418  -0.000105
    26  H    0.000013  -0.000069  -0.000002  -0.000034  -0.001775  -0.000118
    27  H   -0.000151   0.003465   0.000012   0.000000   0.000003   0.000004
    28  H    0.000087  -0.000147  -0.000002  -0.008558   0.000360  -0.000004
    29  H    0.000317   0.000626  -0.000004  -0.000083   0.000243   0.000008
    30  H   -0.000139   0.000180   0.000000  -0.000103   0.000010   0.000000
    31  H   -0.000017  -0.000117   0.000000  -0.000066  -0.000309  -0.000001
    32  H    0.037474  -0.012820  -0.000008  -0.000001   0.000000   0.000000
    33  H    0.192263  -0.008069   0.000002   0.000000   0.000000   0.000000
    34  H   -0.011181   0.283442   0.000067   0.000000   0.000000   0.000000
             25         26         27         28         29         30
     1  O   -0.000014  -0.000011  -0.000112  -0.000003  -0.000023  -0.000002
     2  C    0.000001   0.001362  -0.000831  -0.002653  -0.000444   0.001291
     3  C    0.001282  -0.002199  -0.000913   0.002726  -0.004676   0.003149
     4  C   -0.001949   0.005956  -0.004517   0.021228  -0.008360   0.002328
     5  N   -0.001646  -0.013616   0.000004  -0.000824   0.001192  -0.002046
     6  C    0.032883   0.046022  -0.002829   0.018373   0.058537   0.028025
     7  C   -0.009240  -0.023774  -0.000532  -0.039432  -0.068403  -0.000852
     8  O   -0.004127   0.009308  -0.000047  -0.000616  -0.000405   0.000045
     9  C    0.323198   0.385016   0.032198   0.001431   0.016432   0.002152
    10  C   -0.001102  -0.059089  -0.004419   0.001122   0.008623   0.000346
    11  O    0.001650   0.001575   0.248635  -0.000037  -0.003081   0.000144
    12  O   -0.004163   0.010985   0.002891   0.000032  -0.000253   0.000013
    13  C   -0.001649  -0.040986   0.001057   0.372399  -0.099262  -0.050224
    14  C    0.002804  -0.004838  -0.001063  -0.040323   0.439807   0.397283
    15  O    0.000044  -0.000262   0.000066  -0.042956   0.003987  -0.004699
    16  C   -0.000010  -0.000015  -0.000845   0.008803   0.013007  -0.010190
    17  C   -0.000012   0.000001   0.000251   0.000025   0.000923  -0.000648
    18  Cl   0.000000   0.000000   0.000000  -0.000006   0.000007  -0.000003
    19  C    0.000000   0.000013  -0.000151   0.000087   0.000317  -0.000139
    20  C    0.000059  -0.000069   0.003465  -0.000147   0.000626   0.000180
    21  H   -0.000001  -0.000002   0.000012  -0.000002  -0.000004   0.000000
    22  H   -0.000079  -0.000034   0.000000  -0.008558  -0.000083  -0.000103
    23  H   -0.004418  -0.001775   0.000003   0.000360   0.000243   0.000010
    24  H   -0.000105  -0.000118   0.000004  -0.000004   0.000008   0.000000
    25  H    0.464261  -0.023652  -0.000249   0.000004   0.000128  -0.000003
    26  H   -0.023652   0.526184   0.000066   0.000017  -0.001304   0.000204
    27  H   -0.000249   0.000066   0.299644   0.000000   0.000002   0.000000
    28  H    0.000004   0.000017   0.000000   0.516576   0.003838  -0.004222
    29  H    0.000128  -0.001304   0.000002   0.003838   0.510819  -0.026234
    30  H   -0.000003   0.000204   0.000000  -0.004222  -0.026234   0.501902
    31  H    0.000044   0.000894   0.000000  -0.000634  -0.026723  -0.022039
    32  H    0.000000   0.000000   0.000000   0.000003   0.000000  -0.000004
    33  H    0.000000   0.000000   0.000000   0.000000   0.000000   0.000000
    34  H    0.000000   0.000000   0.000000   0.000000   0.000000   0.000000
             31         32         33         34
     1  O    0.000002  -0.000417  -0.000387  -0.003546
     2  C   -0.001379   0.026820  -0.046188   0.043775
     3  C    0.003125   0.001277   0.006174   0.015910
     4  C   -0.007928   0.068896  -0.009332   0.000496
     5  N   -0.007763   0.000415   0.000035   0.000399
     6  C    0.042401   0.005913  -0.000070   0.000119
     7  C    0.028671  -0.000041  -0.000007   0.000012
     8  O   -0.000122   0.000000   0.000000   0.000000
     9  C   -0.024867  -0.000027   0.000000  -0.000022
    10  C    0.002165   0.000092  -0.000002   0.000021
    11  O    0.000063   0.000001   0.000000   0.000001
    12  O    0.000091   0.000000   0.000000  -0.000009
    13  C   -0.095043   0.002288  -0.000034  -0.000001
    14  C    0.404254  -0.000519  -0.000003   0.000002
    15  O    0.009567   0.004126   0.000007   0.000013
    16  C   -0.000889   0.207236   0.122278   0.002201
    17  C   -0.000165  -0.014420   0.080756  -0.003991
    18  Cl  -0.000001  -0.003014  -0.007674   0.000925
    19  C   -0.000017   0.037474   0.192263  -0.011181
    20  C   -0.000117  -0.012820  -0.008069   0.283442
    21  H    0.000000  -0.000008   0.000002   0.000067
    22  H   -0.000066  -0.000001   0.000000   0.000000
    23  H   -0.000309   0.000000   0.000000   0.000000
    24  H   -0.000001   0.000000   0.000000   0.000000
    25  H    0.000044   0.000000   0.000000   0.000000
    26  H    0.000894   0.000000   0.000000   0.000000
    27  H    0.000000   0.000000   0.000000   0.000000
    28  H   -0.000634   0.000003   0.000000   0.000000
    29  H   -0.026723   0.000000   0.000000   0.000000
    30  H   -0.022039  -0.000004   0.000000   0.000000
    31  H    0.521948   0.000000   0.000000   0.000000
    32  H    0.000000   0.463357  -0.000130   0.000008
    33  H    0.000000  -0.000130   0.468217  -0.003678
    34  H    0.000000   0.000008  -0.003678   0.471388
 Mulliken atomic charges:
              1
     1  O   -0.531428
     2  C   -0.473708
     3  C    0.189496
     4  C    0.400798
     5  N   -0.426596
     6  C    0.073925
     7  C   -0.090972
     8  O   -0.520242
     9  C   -0.205379
    10  C    0.328456
    11  O   -0.412894
    12  O   -0.467831
    13  C    0.016372
    14  C   -0.495162
    15  O   -0.294024
    16  C   -0.580344
    17  C   -0.088148
    18  Cl   0.233301
    19  C   -0.396986
    20  C    0.302084
    21  H    0.443759
    22  H    0.203489
    23  H    0.186120
    24  H    0.411185
    25  H    0.226064
    26  H    0.184143
    27  H    0.428209
    28  H    0.193392
    29  H    0.180759
    30  H    0.184337
    31  H    0.174839
    32  H    0.213494
    33  H    0.205840
    34  H    0.203652
 Sum of Mulliken atomic charges =   0.00000
 Mulliken charges with hydrogens summed into heavy atoms:
              1
     1  O   -0.087669
     2  C   -0.473708
     3  C    0.189496
     4  C    0.400798
     5  N   -0.426596
     6  C    0.277414
     7  C    0.095149
     8  O   -0.109057
     9  C    0.204827
    10  C    0.328456
    11  O    0.015314
    12  O   -0.467831
    13  C    0.209764
    14  C    0.044773
    15  O   -0.294024
    16  C   -0.366850
    17  C   -0.088148
    18  Cl   0.233301
    19  C   -0.191147
    20  C    0.505736
 Sum of Mulliken charges with hydrogens summed into heavy atoms =   0.00000
 Electronic spatial extent (au):  <R**2>=           6862.0707
 Charge=              0.0000 electrons
 Dipole moment (field-independent basis, Debye):
    X=             -1.8724    Y=              3.2295    Z=              2.9900  Tot=              4.7828
 Quadrupole moment (field-independent basis, Debye-Ang):
   XX=           -125.7574   YY=           -118.9066   ZZ=           -126.3189
   XY=            -17.8199   XZ=             -9.7087   YZ=             -7.7104
 Traceless Quadrupole moment (field-independent basis, Debye-Ang):
   XX=             -2.0965   YY=              4.7544   ZZ=             -2.6579
   XY=            -17.8199   XZ=             -9.7087   YZ=             -7.7104
 Octapole moment (field-independent basis, Debye-Ang**2):
  XXX=            -48.2032  YYY=             23.2239  ZZZ=             21.5470  XYY=             -5.7806
  XXY=             -6.6643  XXZ=             38.1772  XZZ=             -2.7719  YZZ=            -10.2900
  YYZ=             12.6256  XYZ=             11.4547
 Hexadecapole moment (field-independent basis, Debye-Ang**3):
 XXXX=          -6573.2589 YYYY=          -1692.0326 ZZZZ=           -765.3973 XXXY=           -210.1505
 XXXZ=           -165.1766 YYYX=            -61.2369 YYYZ=            -47.3999 ZZZX=            -31.5745
 ZZZY=            -56.0583 XXYY=          -1263.0368 XXZZ=          -1334.9575 YYZZ=           -364.2689
 XXYZ=            -34.7217 YYXZ=            -10.7395 ZZXY=             39.2977
 N-N= 1.731251696008D+03 E-N=-6.735196009371D+03  KE= 1.385287941176D+03
 D1PCM: PCM CHGder 1st derivatives, ID1Alg=3 FixD1E=F DoIter=F DoCFld=F I1PDM=0.
 Calling FoFJK, ICntrl=      2127 FMM=F ISym2X=0 I1Cent= 0 IOpClX= 0 NMat=1 NMatS=1 NMatT=0.
 ***** Axes restored to original set *****
 -------------------------------------------------------------------
 Center     Atomic                   Forces (Hartrees/Bohr)
 Number     Number              X              Y              Z
 -------------------------------------------------------------------
      1        8          -0.030806762    0.005341949    0.000527334
      2        6           0.011791458   -0.003591897   -0.000298065
      3        6          -0.006352575    0.017818675    0.003322195
      4        6           0.003855665   -0.000107289   -0.006173012
      5        7          -0.005971434   -0.022636923   -0.007306557
      6        6           0.023812288    0.002266736   -0.001687038
      7        6          -0.009894492   -0.006375136   -0.002492647
      8        8           0.018851209    0.007631465    0.002760914
      9        6          -0.012513628    0.009163232   -0.000714150
     10        6          -0.002335166   -0.006300315    0.009281299
     11        8           0.031273840    0.004670424    0.033273882
     12        8           0.010006334    0.022422996   -0.013038505
     13        6           0.015038953    0.000316384   -0.018822526
     14        6          -0.001330772   -0.002236362    0.004155073
     15        8          -0.044797867    0.009096807    0.005209387
     16        6          -0.014617625   -0.011536005   -0.005316711
     17        6           0.020325389   -0.017663841   -0.004447392
     18       17          -0.005354386    0.006764206    0.002014283
     19        6           0.018105786   -0.001107964    0.000449317
     20        6           0.002084953    0.019198632    0.006492379
     21        1           0.020768183    0.007819178    0.003651720
     22        1           0.005201386   -0.006407255    0.002454185
     23        1           0.002826096    0.002218259   -0.000618897
     24        1          -0.019081934   -0.012982656   -0.002512734
     25        1           0.002011165   -0.006043087    0.003322840
     26        1          -0.002396676    0.003129330   -0.001407601
     27        1          -0.028389398   -0.017093257   -0.015578785
     28        1          -0.002749031    0.001094518    0.001857766
     29        1          -0.001292605   -0.003512531   -0.001333321
     30        1          -0.001766609    0.001613129    0.002860365
     31        1           0.003180759   -0.001305273    0.001003317
     32        1           0.003811286    0.002925105    0.000863808
     33        1          -0.004195755   -0.000843343   -0.000465669
     34        1           0.000901964   -0.003747890   -0.001286454
 -------------------------------------------------------------------
 Cartesian Forces:  Max     0.044797867 RMS     0.011659542

 GradGradGradGradGradGradGradGradGradGradGradGradGradGradGradGradGradGrad
 Berny optimization.
 Internal  Forces:  Max     0.036615313 RMS     0.007598633
 Search for a local minimum.
 Step number   1 out of a maximum of  191
 All quantities printed in internal units (Hartrees-Bohrs-Radians)
 Mixed Optimization -- RFO/linear search
 Second derivative matrix not updated -- first step.
 ITU=  0
     Eigenvalues ---    0.00230   0.00230   0.00299   0.00313   0.00673
     Eigenvalues ---    0.00797   0.00932   0.01487   0.01564   0.01706
     Eigenvalues ---    0.01843   0.01921   0.01957   0.01969   0.01980
     Eigenvalues ---    0.01998   0.02000   0.02004   0.02136   0.02238
     Eigenvalues ---    0.02384   0.03302   0.03319   0.03350   0.03700
     Eigenvalues ---    0.04300   0.04551   0.05132   0.05330   0.05356
     Eigenvalues ---    0.05568   0.08320   0.08387   0.08395   0.10145
     Eigenvalues ---    0.13360   0.14029   0.16000   0.16000   0.16000
     Eigenvalues ---    0.16000   0.16000   0.16000   0.16000   0.16000
     Eigenvalues ---    0.16000   0.17515   0.18355   0.19906   0.19942
     Eigenvalues ---    0.21951   0.22371   0.23490   0.24022   0.24600
     Eigenvalues ---    0.24994   0.24996   0.24998   0.25000   0.25000
     Eigenvalues ---    0.25000   0.26953   0.26974   0.27354   0.28940
     Eigenvalues ---    0.29037   0.33056   0.33728   0.34396   0.34694
     Eigenvalues ---    0.34715   0.34792   0.34797   0.34811   0.34841
     Eigenvalues ---    0.35113   0.35940   0.35948   0.35980   0.38093
     Eigenvalues ---    0.39778   0.40408   0.41961   0.43049   0.43147
     Eigenvalues ---    0.43986   0.44303   0.44534   0.48479   0.51671
     Eigenvalues ---    0.53211   0.56408   0.57423   0.58786   0.71915
     Eigenvalues ---    0.91960
 RFO step:  Lambda=-2.81427527D-02 EMin= 2.30000000D-03
 Linear search not attempted -- first point.
 Iteration  1 RMS(Cart)=  0.13439361 RMS(Int)=  0.00270040
 Iteration  2 RMS(Cart)=  0.00617250 RMS(Int)=  0.00023391
 Iteration  3 RMS(Cart)=  0.00001624 RMS(Int)=  0.00023370
 Iteration  4 RMS(Cart)=  0.00000001 RMS(Int)=  0.00023370
 Variable       Old X    -DE/DX   Delta X   Delta X   Delta X     New X
                                 (Linear)    (Quad)   (Total)
    R1        2.58216  -0.01707   0.00000  -0.03133  -0.03133   2.55083
    R2        1.80602   0.02222   0.00000   0.03753   0.03753   1.84354
    R3        2.69110  -0.01976   0.00000  -0.04449  -0.04447   2.64663
    R4        2.66304  -0.01436   0.00000  -0.03085  -0.03085   2.63218
    R5        2.81092  -0.02070   0.00000  -0.05663  -0.05663   2.75428
    R6        2.66988  -0.01314   0.00000  -0.02832  -0.02830   2.64158
    R7        2.39520   0.01406   0.00000   0.01885   0.01914   2.41434
    R8        2.58422  -0.01102   0.00000  -0.02105  -0.02088   2.56334
    R9        2.71584   0.01034   0.00000   0.02688   0.02694   2.74278
   R10        2.94485  -0.01324   0.00000  -0.04448  -0.04448   2.90038
   R11        2.91454   0.01109   0.00000   0.03451   0.03419   2.94873
   R12        2.06667   0.00406   0.00000   0.01092   0.01092   2.07759
   R13        2.67489   0.00499   0.00000   0.01085   0.01085   2.68574
[...]
 397,-0.04251263,-0.07265149,-0.06778446,0.00107562,0.00054994,-0.00175
 358,-0.00001329,0.00003433,-0.00000201,0.00002565,0.00003840,0.0000126
 7,0.00001158,-0.00001380,0.00000014,0.00002240,-0.00003149,0.00000284,
 -0.00001751,-0.00000686,-0.00001269,-0.00007928,-0.00006228,-0.0000148
 4,0.00004716,0.00013264,-0.00017989,-0.00003911,-0.00000569,0.00005076
 ,-0.00001367,-0.00006466,0.00003152,-0.00001977,-0.00007388,-0.0000789
 3,0.00187306,-0.00246393,-0.00106935,-0.00009901,-0.00002281,-0.000031
 67,-0.00175225,-0.00144814,0.00298783,0.04421025,0.07752871,0.00001201
 ,-0.00001914,0.00002312,-0.00002200,0.00002782,-0.00000591,0.00003721,
 0.00005429,-0.00004687,0.00079101,0.00064129,-0.00040568,0.00016326,0.
 00034350,0.00024596,-0.00023486,-0.00067783,0.00058623,0.00000976,0.00
 051423,-0.00031695,-0.00005998,0.00002721,0.00019321,0.00043354,-0.000
 30635,-0.00085825,0.00037450,0.00037346,0.00015772,-0.00009019,0.00001
 284,-0.00011152,-0.00019129,-0.00030090,0.00004433,-0.01334293,-0.0093
 6538,-0.02424835,-0.11056752,-0.06700822,-0.22913471,-0.00084590,-0.00
 091897,0.00316418,0.00003408,-0.00001590,-0.00000353,-0.00002010,-0.00
 004382,-0.00000862,-0.00001337,0.00001456,0.00000215,-0.00002029,0.000
 03165,0.00000205,0.00002202,-0.00000508,0.00000284,0.00002042,0.000015
 29,-0.00002847,-0.00001167,0.00004523,0.00018038,0.00004660,-0.0000409
 4,-0.00001254,-0.00001998,0.00001851,-0.00006356,0.00007645,-0.0003683
 1,0.00014334,0.00068675,-0.00182336,0.00067313,0.00002582,0.00003119,0
 .00001769,0.00206979,0.00376598,-0.00262723,0.11909825,0.07347080,0.25
 010857,-0.00004416,0.00001193,0.00000392,0.00002833,-0.00004453,-0.000
 00427,0.00003235,0.00006162,0.00004670,0.00019381,-0.00068224,-0.00039
 740,-0.00017775,0.00011294,-0.00010003,-0.00017684,-0.00013658,0.00170
 386,-0.00041368,-0.00027424,-0.00008563,0.00017918,0.00023622,-0.00001
 070,0.00026844,-0.00003462,-0.00014930,-0.00014224,0.00005557,-0.00001
 861,0.00006521,0.00000701,0.00002558,0.00004273,0.00003477,0.00001031,
 0.00023261,-0.01013960,-0.00072995,-0.06248367,0.06348678,0.01065024,0
 .00142439,0.00066878,-0.00040748,-0.00001065,-0.00001157,0.00000977,-0
 .00000426,0.00001688,-0.00000507,0.00000555,-0.00000345,-0.00000182,0.
 00000331,-0.00000464,0.00000284,0.00000164,0.00001280,-0.00000251,0.00
 003504,0.00002923,-0.00000208,0.00002094,-0.00031834,0.00000901,0.0004
 1382,-0.00003516,0.00008873,-0.00004090,0.00001260,-0.00005608,0.00001
 006,-0.00006655,0.00002344,-0.00016288,-0.00002030,-0.00002087,0.00000
 834,-0.00000877,0.00000137,0.00014527,0.00052431,-0.00035006,0.0035969
 7,-0.01631671,-0.00212434,0.06264612,-0.00012057,-0.00005567,-0.000027
 24,0.00000241,-0.00001878,0.00000156,-0.00003527,0.00006916,0.00001528
 ,0.00027530,-0.00070732,-0.00061405,-0.00056009,0.00011202,0.00015293,
 -0.00037222,0.00138125,0.00323116,-0.00054210,0.00052976,0.00008270,0.
 00020954,-0.00031640,-0.00003531,0.00002869,0.00022803,-0.00018017,0.0
 0025545,0.00020782,0.00010753,-0.00013141,-0.00006418,-0.00008187,-0.0
 0009761,-0.00017002,-0.00002384,0.00456176,-0.01873774,-0.00323779,0.0
 6239225,-0.30031353,-0.04907760,0.00016809,0.00181049,-0.00007657,0.00
 001349,-0.00004187,-0.00000303,-0.00002225,-0.00004041,-0.00002284,-0.
 00001818,0.00002090,0.00000299,-0.00002755,0.00002975,0.00000966,0.000
 01683,0.00000412,-0.00000445,0.00012536,0.00013928,0.00004524,-0.00004
 370,-0.00100750,-0.00005345,-0.00002247,0.00005957,-0.00001034,0.00001
 953,0.00009053,0.00001297,-0.00000454,-0.00009065,0.00000522,0.0000113
 7,-0.00019637,0.00015367,0.00002721,0.00002128,0.00002108,-0.00012645,
 0.00109955,-0.00006549,0.00221883,-0.00771952,-0.00094593,-0.06791784,
 0.32334263,0.00018160,0.00008579,0.00007226,-0.00000911,0.00003754,-0.
 00000043,0.00001828,-0.00008444,-0.00001339,-0.00031279,0.00056784,0.0
 0027490,0.00069163,0.00086524,0.00031962,0.00205838,0.00044367,-0.0042
 4152,0.00042146,-0.00019734,-0.00086713,-0.00019921,0.00011462,0.00037
 084,-0.00007587,0.00014688,-0.00069529,0.00046833,0.00027641,0.0000893
 8,-0.00014204,-0.00007970,-0.00005558,-0.00021687,-0.00032983,0.000079
 44,-0.00715949,0.03043725,0.00356409,0.01197474,-0.05135841,-0.0559077
 8,-0.00128448,-0.00185318,0.00038944,-0.00000142,0.00002045,-0.0000067
 6,0.00001273,0.00003282,0.00001264,0.00001455,-0.00001566,-0.00000254,
 0.00002140,-0.00002522,-0.00000264,-0.00000874,-0.00000304,-0.00000410
 ,-0.00018659,-0.00020189,-0.00010315,-0.00005930,0.00113787,-0.0000252
 1,-0.00006501,-0.00003836,-0.00000652,0.00000887,-0.00002537,-0.000092
 02,0.00003769,-0.00028769,0.00013032,0.00007199,-0.00040095,0.00052690
 ,0.00003602,0.00001093,0.00000447,-0.00065961,-0.00031495,0.00125646,0
 .00754410,-0.02468790,-0.00390010,-0.01351770,0.05062177,0.06085671,-0
 .00001279,-0.00008515,-0.00003036,-0.00005039,0.00011159,0.00000945,-0
 .00010273,-0.00010766,-0.00006744,0.00057957,0.00191434,0.00067013,0.0
 0040702,-0.00048979,-0.00019587,-0.00046311,0.00010428,0.00033540,-0.0
 0055531,0.00005512,0.00001678,0.00029457,0.00044876,-0.00009414,0.0002
 9519,-0.00015581,0.00008809,-0.00050503,-0.00007988,-0.00010858,0.0001
 9610,0.00003538,0.00005032,0.00019911,0.00021741,-0.00001037,-0.006840
 66,0.00116462,-0.00115965,-0.31312259,0.01472262,0.04383377,-0.0006650
 7,-0.00207635,0.00172533,0.00004972,-0.00002943,0.00000063,-0.00001294
 ,-0.00006095,-0.00001105,-0.00002166,0.00002114,0.00000219,-0.00002298
 ,0.00002935,0.00000223,0.00000840,-0.00001996,0.00000140,0.00005759,0.
 00007582,0.00003226,0.00012583,-0.00005603,-0.00000167,0.00047078,0.00
 064910,-0.00007479,-0.00008188,0.00001744,-0.00004092,-0.00001689,0.00
 007418,-0.00001266,-0.00025090,-0.00006196,-0.00032718,-0.00000917,-0.
 00001098,0.00000383,0.00005216,-0.00032511,0.00035475,-0.01243132,0.00
 158356,0.00365567,-0.00568172,-0.00027394,0.00033891,0.33809633,0.0000
 5621,-0.00006904,-0.00001464,-0.00008722,0.00014930,-0.00000983,-0.000
 09045,-0.00022043,-0.00020370,-0.00001476,0.00223016,0.00087445,0.0005
 9609,-0.00018442,-0.00024641,-0.00011703,0.00038073,-0.00055277,-0.000
 23055,-0.00138471,0.00036715,0.00008410,0.00051448,-0.00014705,0.00017
 073,-0.00014563,0.00006997,-0.00057002,-0.00016905,-0.00007467,0.00026
 227,0.00005178,0.00008849,0.00021419,0.00029012,-0.00000506,-0.0169535
 6,0.00101765,-0.00099694,0.01624273,-0.04677790,-0.00152007,-0.0042919
 8,-0.00312173,0.00398544,0.00004069,-0.00003861,0.00000418,0.00000059,
 -0.00004535,-0.00000952,-0.00001815,0.00001860,0.00000076,-0.00001778,
 0.00001544,-0.00000213,-0.00000212,-0.00003342,0.00000388,-0.00001610,
 0.00001135,0.00001525,0.00017730,0.00014054,-0.00001111,0.00087760,-0.
 00124045,0.00039709,-0.00007969,-0.00005160,-0.00002759,0.00002379,0.0
 0003834,-0.00000775,-0.00037302,-0.00017798,-0.00049326,-0.00001102,-0
 .00002574,-0.00000672,0.00038778,0.00038686,-0.00011403,-0.00963010,-0
 .00088811,0.00245932,0.03073284,0.00033815,-0.00489773,-0.01737368,0.0
 4901793,0.00003470,0.00011950,0.00002447,0.00010276,-0.00018274,0.0000
 1661,0.00020438,0.00033056,0.00024537,0.00031176,-0.00266437,-0.001567
 09,-0.00071503,0.00068388,0.00043816,0.00015275,-0.00014778,0.00065521
 ,0.00031733,0.00025816,0.00026743,-0.00018865,-0.00007513,-0.00012611,
 0.00000706,-0.00019142,0.00021881,-0.00019234,-0.00000326,-0.00024582,
 0.00007107,0.00000809,0.00007823,0.00006773,0.00013003,0.00004221,0.02
 254278,-0.00553731,-0.00015398,0.04360107,-0.00116848,-0.05614323,0.00
 520425,0.00537643,-0.00311301,-0.00006304,0.00006939,-0.00001020,0.000
 01074,0.00008435,0.00002245,0.00003533,-0.00003602,-0.00000416,0.00003
 680,-0.00003300,-0.00000192,0.00000376,0.00004303,-0.00000507,-0.00010
 737,-0.00011059,-0.00001073,-0.00014873,-0.00016318,-0.00007831,-0.000
 42353,0.00038963,0.00012656,0.00003358,-0.00005664,0.00004621,0.000008
 73,0.00007297,-0.00001212,-0.00040184,-0.00005354,-0.00028304,-0.00001
 021,-0.00001465,-0.00001389,-0.00104032,-0.00058353,0.00018619,-0.0258
 5563,0.00236981,0.00623737,0.00539895,-0.00001012,-0.00202816,-0.04897
 877,0.00106796,0.05519812,0.00009225,0.00146344,0.00037845,-0.00279651
 ,0.00270440,-0.00045594,0.01148890,0.01764664,0.00575138,0.00060208,0.
 00072492,0.00079462,0.00026485,-0.00058048,-0.00013503,0.00006876,0.00
 003561,-0.00011894,-0.00005133,0.00003727,0.00005080,0.00004196,-0.000
 07801,-0.00001268,0.00000549,-0.00001002,-0.00000512,0.00005063,0.0000
 5091,0.00003877,-0.00003710,-0.00000709,-0.00001517,-0.00002537,-0.000
 03407,-0.00000813,-0.00063986,-0.00020396,0.00009888,0.00012596,-0.000
 02185,0.00000228,-0.00178421,0.00002829,-0.00039408,-0.09051685,-0.088
 71535,-0.03098825,-0.00556395,-0.02561339,-0.00828409,0.00114185,-0.00
 111642,0.00027251,-0.00541855,0.00015302,-0.00146856,-0.00071847,0.000
 85821,0.00024408,0.00052807,0.00006572,0.00011485,-0.00000321,-0.00000
 624,0.00000716,0.00000242,-0.00000528,-0.00000816,0.00000402,0.0000190
 8,0.00000653,0.00000027,-0.00000651,-0.00000642,-0.00000302,0.00000096
 ,0.00001182,0.00000903,0.00000102,-0.00001434,0.00008895,0.00000055,-0
 .00001221,-0.00000702,0.00000780,0.00000856,-0.00001741,-0.00000808,-0
 .00000309,0.00002112,0.00002048,-0.00003491,0.09306046,-0.00024765,-0.
 00099503,-0.00032409,0.00386828,0.00006053,-0.00108183,-0.00788338,-0.
 01512095,-0.00618634,-0.00104005,-0.00190932,0.00052295,-0.00016129,0.
 00036600,0.00012112,-0.00015926,0.00010012,-0.00004962,0.00008500,-0.0
 0002992,-0.00007856,-0.00005560,0.00009160,0.00002006,-0.00000898,0.00
 001433,0.00001146,-0.00003577,-0.00005558,-0.00004892,0.00002987,0.000
 01449,0.00002509,0.00001562,0.00003832,0.00001550,0.00065610,0.0005132
 5,0.00002097,-0.00007675,0.00001686,-0.00000419,-0.00160305,0.00084844
 ,0.00014376,-0.08932830,-0.28889550,-0.07932805,0.00152392,0.00100607,
 -0.00068085,0.00053564,0.00059428,0.00102222,0.00030427,0.00135600,-0.
 00115650,0.00023288,0.00037830,0.00039699,-0.00042595,-0.00005924,-0.0
 0008470,-0.00005496,0.00000523,-0.00000151,-0.00000454,0.00000221,0.00
 000586,-0.00000252,-0.00002219,-0.00000609,-0.00000088,0.00000566,0.00
 000719,0.00000382,-0.00000085,-0.00001112,-0.00000903,-0.00000510,0.00
 000501,-0.00005533,-0.00000790,-0.00000092,0.00001389,-0.00000178,-0.0
 0000798,0.00000971,-0.00000624,0.00000419,-0.00001812,-0.00002597,0.00
 002738,0.09394459,0.30159389,-0.00007594,-0.00006729,0.00006734,-0.000
 20287,-0.00132001,0.00581565,-0.00118742,-0.00265047,0.00314202,0.0003
 9331,0.00061942,-0.00377838,-0.00007647,0.00008334,-0.00001628,-0.0000
 8305,0.00001755,0.00050416,-0.00002059,-0.00004509,-0.00004795,-0.0000
 2664,0.00004568,-0.00000999,0.00000150,-0.00000544,-0.00001296,0.00000
 896,-0.00002769,0.00000815,-0.00001162,0.00001036,-0.00000331,0.000001
 83,0.00001806,-0.00000486,0.00011737,0.00004508,-0.00019955,0.00003499
 ,0.00000980,0.00000890,-0.00070964,0.00028817,0.00014984,-0.03104774,-
 0.07919529,-0.06309141,-0.00100320,-0.00447193,0.00298364,0.00070072,0
 .00082525,-0.00260126,-0.00147659,-0.00115732,0.00537781,0.00011893,0.
 00047108,-0.00085594,-0.00002561,-0.00000890,-0.00001959,0.00007853,-0
 .00000458,-0.00000830,-0.00001762,0.00000825,0.00001199,-0.00000083,-0
 .00000991,-0.00000187,0.00000069,0.00000217,0.00000119,0.00000203,0.00
 000152,-0.00000080,0.00000015,-0.00000552,-0.00000010,-0.00003010,0.00
 000244,0.00000425,0.00000010,-0.00000894,-0.00000927,0.00000715,0.0000
 0553,0.00000513,-0.00000653,0.00000674,-0.00000681,0.03448770,0.086542
 47,0.05306126,-0.00112400,-0.00012415,-0.00019384,0.00059145,0.0026148
 8,-0.00035468,0.00073875,0.00035173,0.00032598,-0.00023484,-0.00005992
 ,0.00003756,0.00000358,-0.00007572,-0.00001749,0.00000223,-0.00003270,
 -0.00000536,-0.00000146,0.00001430,0.00000433,0.00000135,-0.00000580,-
 0.00000016,-0.00000002,-0.00000231,-0.00000064,0.00001203,0.00002037,-
 0.00000370,-0.00000217,-0.00000057,0.00000613,-0.00001343,-0.00001005,
 0.00000668,0.00000912,-0.00000541,-0.00000718,0.00000058,-0.00000112,0
 .00000013,-0.00001675,-0.00000673,-0.00000145,0.00109181,-0.00138031,-
 0.00097368,-0.00572698,0.00178137,-0.00083925,0.00103014,0.00044312,0.
 00059193,-0.33336713,-0.03783641,-0.05088555,-0.01229137,-0.00385824,-
 0.00341204,0.00015234,0.00026270,0.00014962,0.00000934,0.00000924,0.00
 000013,0.00000329,-0.00000163,-0.00000211,0.00000123,0.00000177,0.0000
 0174,0.00000010,-0.00000073,-0.00000059,-0.00000116,-0.00000069,0.0000
 0012,-0.00000122,-0.00000159,-0.00001189,-0.00000109,-0.00000017,0.000
 00059,-0.00000002,-0.00000026,0.00000030,-0.00000005,0.00000034,-0.000
 00023,0.00000022,-0.00000009,0.00000007,-0.00011764,0.00004366,0.00000
 013,0.34850230,0.00151813,0.00043345,0.00041729,0.00266951,-0.00291484
 ,-0.00267115,0.00082219,-0.00096860,0.00011824,-0.00023355,-0.00015914
 ,0.00010596,0.00010660,0.00002560,0.00005026,-0.00005065,0.00001153,-0
 .00002343,-0.00000598,0.00001760,0.00000189,0.00000655,-0.00000933,0.0
 0000265,0.00000122,-0.00000262,0.00000090,-0.00002185,-0.00000337,0.00
 002156,0.00000633,-0.00000702,-0.00001988,0.00002339,-0.00000497,-0.00
 001553,0.00003204,0.00003690,0.00000829,-0.00000046,0.00000283,0.00000
 198,-0.00002248,0.00011378,0.00001848,-0.00139210,-0.00463799,-0.00292
 097,-0.02615723,-0.00002420,-0.00463263,-0.00096628,0.00102342,0.00079
 014,-0.03612301,-0.06126569,-0.01100627,0.02362150,0.00774793,0.004021
 14,-0.00003296,-0.00035772,-0.00007793,0.00000687,0.00000904,0.0000020
 6,0.00000491,-0.00000197,-0.00000242,-0.00000440,0.00000593,-0.0000022
 0,0.00000065,0.00000052,-0.00000046,-0.00000071,0.00000025,0.00000146,
 0.00000276,0.00000888,0.00001738,-0.00000059,0.00000576,-0.00000082,0.
 00000018,-0.00000200,0.00000084,0.00000089,0.00000186,-0.00000152,0.00
 000025,-0.00000049,-0.00000097,-0.00126421,0.00019518,-0.00011081,0.03
 821577,0.06016581,0.00026242,0.00013048,-0.00006962,-0.00039427,-0.002
 65820,0.00753527,0.00045787,0.00001111,-0.00084662,-0.00001810,0.00012
 863,-0.00060559,0.00004645,0.00002723,-0.00012864,-0.00001277,-0.00001
 264,0.00010313,-0.00000628,0.00001433,-0.00000237,-0.00000207,0.000001
 08,-0.00000129,-0.00000120,-0.00000414,-0.00000181,-0.00000287,0.00001
 115,0.00003149,-0.00001432,-0.00000161,-0.00001105,-0.00000272,-0.0000
 0362,-0.00000424,0.00001444,-0.00001919,-0.00001803,-0.00000251,0.0000
 0236,0.00000076,-0.00003237,0.00002815,0.00007057,-0.00092914,-0.00289
 952,0.00450335,-0.00840086,-0.00080784,0.00241698,0.00021026,0.0009989
 0,-0.00209425,-0.05042692,-0.01122343,-0.04925272,0.00402609,0.0002151
 9,0.00556519,0.00007882,0.00001389,-0.00022932,0.00002160,-0.00000002,
 0.00000191,0.00000207,-0.00000102,0.00000006,-0.00000169,0.00000131,0.
 00000013,0.00000125,0.00000068,0.00000040,0.00000089,0.00000028,0.0000
 0097,0.00000676,0.00000143,0.00000477,0.00000034,-0.00000175,0.0000000
 1,0.00000023,-0.00000179,0.00000112,0.00000110,0.00000115,-0.00000014,
 -0.00000066,0.00000048,0.00000075,-0.00035472,0.00007704,-0.00007356,0
 .05491839,0.01458109,0.03742696,0.00321053,-0.00012951,0.00089114,-0.0
 0521524,-0.02776217,-0.00894757,-0.00517979,0.00032564,-0.00136572,0.0
 0058769,-0.00145427,-0.00032895,0.00004499,0.00020589,0.00007785,0.000
 00452,0.00005233,0.00002221,0.00001491,-0.00004032,-0.00002775,-0.0000
 1490,0.00003552,0.00000559,-0.00000077,0.00000833,0.00000439,-0.000022
 15,-0.00004785,-0.00002371,0.00002292,0.00001163,0.00001385,0.00001839
 ,0.00002955,0.00000431,0.00012138,-0.00008502,-0.00007473,-0.00004485,
 0.00000953,-0.00000760,-0.00077170,-0.00007671,-0.00003609,-0.00136104
 ,0.00096765,0.00019601,-0.00116385,0.00292516,-0.00040157,-0.00027059,
 0.00134396,0.00029163,0.01076856,0.01936540,0.00630815,-0.08945426,-0.
 08576247,-0.03062651,-0.00024236,-0.00018561,-0.00003356,-0.00002557,-
 0.00001054,-0.00000397,-0.00000831,0.00000499,0.00000831,-0.00000193,-
 0.00001117,-0.00000435,-0.00000067,0.00000321,0.00000326,0.00000286,0.
 00000056,-0.00000498,-0.00001847,-0.00000901,0.00000937,-0.00005582,-0
 .00000301,0.00001108,0.00000421,0.00000095,-0.00000160,0.00000210,-0.0
 0000216,0.00000086,-0.00000656,-0.00001007,0.00001477,0.00010344,-0.00
 009583,0.00004835,0.00074945,-0.00076326,0.00055450,0.08820290,0.00027
 639,0.00022702,0.00097111,0.00115636,0.00019216,-0.00113978,-0.0002531
 6,0.00090709,-0.00114296,0.00042676,-0.00003298,0.00006436,0.00002392,
 0.00015080,0.00003956,-0.00003578,0.00002559,-0.00000625,-0.00000034,-
 0.00000571,-0.00000518,-0.00000041,0.00000129,0.00000226,0.00000113,0.
 00000023,0.00000224,-0.00003241,0.00000740,-0.00001358,0.00002020,-0.0
 0000729,0.00000338,0.00000753,-0.00000894,0.00000544,0.00002333,0.0000
 1382,0.00000989,-0.00000523,0.00000170,-0.00000005,-0.00003483,0.00000
 491,0.00001948,0.00019697,0.00045242,0.00040251,0.00326883,0.00017361,
 -0.00152161,0.00010979,-0.00095611,-0.00029784,-0.00857365,-0.01507623
 ,-0.00607890,-0.08708781,-0.28901969,-0.08066192,-0.00017743,-0.000017
 64,0.00011997,-0.00000843,-0.00000421,-0.00000020,-0.00000144,0.000000
 73,0.00000167,-0.00000131,0.00000042,-0.00000253,0.00000009,0.00000065
 ,0.00000029,-0.00000012,-0.00000021,-0.00000034,-0.00001343,0.00000769
 ,0.00001509,0.00000152,0.00000564,0.00000039,0.00000076,0.00000050,0.0
 0000010,0.00000027,0.00000008,-0.00000010,-0.00000016,-0.00000080,0.00
 000157,-0.00009196,-0.00006518,0.00008628,-0.00035466,0.00055370,0.001
 38881,0.09115868,0.30246755,0.00098707,0.00089346,-0.00284382,-0.00114
 354,-0.00519426,0.00351169,-0.00151258,-0.00110388,0.00448823,0.000207
 85,-0.00019321,-0.00003432,-0.00000108,0.00006906,0.00004576,-0.000009
 04,0.00002465,0.00001182,0.00000185,-0.00001427,-0.00000431,-0.0000014
 7,0.00000931,-0.00000323,-0.00000435,0.00000312,-0.00000007,0.00001197
 ,-0.00003773,0.00002143,-0.00002184,0.00000760,-0.00001740,0.00001386,
 0.00001983,-0.00001795,0.00002952,0.00000259,-0.00004518,0.00000064,0.
 00000238,0.00000453,-0.00011677,-0.00000485,-0.00009574,0.00000921,0.0
 0052653,-0.00078000,-0.00032408,-0.00155892,0.00702998,-0.00003451,-0.
 00013722,0.00017490,-0.00124282,-0.00218568,0.00223430,-0.03097339,-0.
 08041706,-0.06127171,-0.00001098,0.00014750,-0.00057150,-0.00000366,-0
 .00000410,-0.00000171,-0.00000281,0.00000162,0.00000174,-0.00000112,-0
 .00000297,0.00000214,-0.00000047,0.00000049,0.00000058,0.00000155,0.00
 000116,-0.00000073,0.00001558,0.00000150,0.00001185,-0.00001535,0.0000
 0060,0.00000224,-0.00000014,-0.00000095,-0.00000183,0.00000092,-0.0000
 0034,-0.00000016,-0.00000051,-0.00000021,-0.00000047,0.00005146,0.0000
 8202,-0.00039912,0.00066603,0.00132537,-0.00432461,0.03342303,0.087736
 85,0.05287268\\0.00004028,0.00000469,-0.00000114,-0.00001183,0.0000139
 8,0.00000308,0.00000281,-0.00000893,-0.00000684,0.00000032,-0.00001147
 ,0.00001298,-0.00001036,-0.00000658,-0.00000763,0.00001512,0.00000552,
 -0.00000078,-0.00000272,0.00000387,-0.00000124,0.00000453,0.00000343,-
 0.00000100,-0.00000293,0.00000442,0.00000611,0.00000812,-0.00001701,-0
 .00000626,-0.00001003,-0.00000263,-0.00000328,0.00000001,0.00001893,-0
 .00000791,-0.00001344,-0.00000735,0.00000007,-0.00000209,0.00000917,0.
 00000688,0.00000827,0.00000400,-0.00000052,-0.00000008,0.00000068,0.00
 000219,0.00000123,-0.00000775,0.00000331,-0.00000201,-0.00000340,0.000
 00550,0.00000125,-0.00000078,0.00000059,0.00000459,-0.00000409,0.00000
 301,-0.00003083,-0.00001189,-0.00000731,-0.00000283,-0.00000273,-0.000
 00067,0.00000182,-0.00000176,-0.00000203,0.00000145,0.00000281,-0.0000
 0600,-0.00000232,0.00000261,-0.00000492,-0.00000072,0.00000368,0.00000
 074,0.00000612,0.00001183,-0.00000052,-0.00000047,0.00000156,0.0000022
 5,-0.00000224,0.00000207,0.00000080,0.00000043,-0.00000002,0.00000272,
 -0.00000063,0.00000354,-0.00000064,-0.00000187,-0.00000331,0.00000440,
 -0.00000048,-0.00000372,0.00000336,0.00000154,-0.00000333,0.00000068\\
 \@


 LENDING MONEY TO FRIENDS CAUSES THEM TO LOSE THEIR MEMORIES.

    --  PETER'S THEORY OF RECIPROCAL INHIBITION OF FISCAL RECALL
 Job cpu time:  0 days  8 hours 35 minutes 31.0 seconds.
 File lengths (MBytes):  RWF=    860 Int=      0 D2E=      0 Chk=     20 Scr=      1
 Normal termination of Gaussian 09 at Sat Mar 23 01:08:40 2019.
