 Entering Gaussian System, Link 0=g09
 Initial command:
 /home/yuheng/proj/yuheng/g09/l1.exe /home/yuheng/proj/yuheng/g09_scratch/Gau-30017.inp -scrdir=/home/yuheng/proj/yuheng/g09_scratch/
 Entering Link 1 = /home/yuheng/proj/yuheng/g09/l1.exe PID=     30018.
  
 Copyright (c) 1988,1990,1992,1993,1995,1998,2003,2009,2010,
            Gaussian, Inc.  All Rights Reserved.
  
 This is part of the Gaussian(R) 09 program.  It is based on
 the Gaussian(R) 03 system (copyright 2003, Gaussian, Inc.),
 the Gaussian(R) 98 system (copyright 1998, Gaussian, Inc.),
 the Gaussian(R) 94 system (copyright 1995, Gaussian, Inc.),
 the Gaussian 92(TM) system (copyright 1992, Gaussian, Inc.),
 the Gaussian 90(TM) system (copyright 1990, Gaussian, Inc.),
 the Gaussian 88(TM) system (copyright 1988, Gaussian, Inc.),
 the Gaussian 86(TM) system (copyright 1986, Carnegie Mellon
 University), and the Gaussian 82(TM) system (copyright 1983,
 Carnegie Mellon University). Gaussian is a federally registered
 trademark of Gaussian, Inc.
  
 This software contains proprietary and confidential information,
 including trade secrets, belonging to Gaussian, Inc.
  
 This software is provided under written license and may be
 used, copied, transmitted, or stored only in accord with that
 written license.
  
 The following legend is applicable only to US Government
 contracts under FAR:
  
                    RESTRICTED RIGHTS LEGEND
  
 Use, reproduction and disclosure by the US Government is
 subject to restrictions as set forth in subparagraphs (a)
 and (c) of the Commercial Computer Software - Restricted
 Rights clause in FAR 52.227-19.
  
 Gaussian, Inc.
 340 Quinnipiac St., Bldg. 40, Wallingford CT 06492
  
  
 ---------------------------------------------------------------
 Warning -- This program may not be used in any manner that
 competes with the business of Gaussian, Inc. or will provide
 assistance to any competitor of Gaussian, Inc.  The licensee
 of this program is prohibited from giving any competitor of
 Gaussian, Inc. access to this program.  By using this program,
 the user acknowledges that Gaussian, Inc. is engaged in the
 business of creating and licensing software in the field of
 computational chemistry and represents and warrants to the
 licensee that it is not a competitor of Gaussian, Inc. and that
 it will not use this program in any manner prohibited above.
 ---------------------------------------------------------------
  

 Cite this work as:
 Gaussian 09, Revision B.01,
 M. J. Frisch, G. W. Trucks, H. B. Schlegel, G. E. Scuseria, 
 M. A. Robb, J. R. Cheeseman, G. Scalmani, V. Barone, B. Mennucci, 
 G. A. Petersson, H. Nakatsuji, M. Caricato, X. Li, H. P. Hratchian, 
 A. F. Izmaylov, J. Bloino, G. Zheng, J. L. Sonnenberg, M. Hada, 
 M. Ehara, K. Toyota, R. Fukuda, J. Hasegawa, M. Ishida, T. Nakajima, 
 Y. Honda, O. Kitao, H. Nakai, T. Vreven, J. A. Montgomery, Jr., 
 J. E. Peralta, F. Ogliaro, M. Bearpark, J. J. Heyd, E. Brothers, 
 K. N. Kudin, V. N. Staroverov, T. Keith, R. Kobayashi, J. Normand, 
 K. Raghavachari, A. Rendell, J. C. Burant, S. S. Iyengar, J. Tomasi, 
 M. Cossi, N. Rega, J. M. Millam, M. Klene, J. E. Knox, J. B. Cross, 
 V. Bakken, C. Adamo, J. Jaramillo, R. Gomperts, R. E. Stratmann, 
 O. Yazyev, A. J. Austin, R. Cammi, C. Pomelli, J. W. Ochterski, 
 R. L. Martin, K. Morokuma, V. G. Zakrzewski, G. A. Voth, 
 P. Salvador, J. J. Dannenberg, S. Dapprich, A. D. Daniels, 
 O. Farkas, J. B. Foresman, J. V. Ortiz, J. Cioslowski, 
 and D. J. Fox, Gaussian, Inc., Wallingford CT, 2010.
 
 ******************************************
 Gaussian 09:  EM64L-G09RevB.01 12-Aug-2010
                22-Mar-2019 
 ******************************************
 %mem=16gb
 %nprocshared=20
 Will use up to   20 processors via shared memory.
 %chk=1b-conf-10.chk
 ----------------------------------------------------------------------
 # m062x/6-31+G(d,p) opt freq=noraman integral(ultrafinegrid) scrf=(ief
 pcm,read,solvent=methanol)
 ----------------------------------------------------------------------
 1/14=-1,18=20,19=15,26=3,38=1,40=2/1,3;
 2/9=110,12=2,17=6,18=5,40=1/2;
 3/5=1,6=6,7=111,11=2,16=1,25=1,30=1,70=2203,71=1,72=3,74=-55,75=-5/1,2,3;
 4//1;
 5/5=2,38=5,53=3/2;
 6/7=2,8=2,9=2,10=2,28=1/1;
 7//1,2,3,16;
 1/14=-1,18=20,19=15/3(2);
 2/9=110/2;
 99//99;
 2/9=110/2;
 3/5=1,6=6,7=111,11=2,16=1,25=1,30=1,70=2205,71=1,72=3,74=-55,75=-5/1,2,3;
 4/5=5,16=3/1;
 5/5=2,38=5,53=3/2;
 7//1,2,3,16;
 1/14=-1,18=20,19=15/3(-5);
 2/9=110/2;
 6/7=2,8=2,9=2,10=2,19=2,28=1/1;
 99/9=1/99;
 ----------------------------------------------------------------------
 Candidate Structure: 1b, Conformer: 10 geometry optimization and frequ
 ency calculation with methanol solvation
 ----------------------------------------------------------------------
 Symbolic Z-matrix:
 Charge =  0 Multiplicity = 1
 O                    -1.95074   4.64003  -2.4193 
 C                    -2.17903   3.76078  -1.39757 
 C                    -1.17629   2.87381  -0.91218 
 C                     0.20911   2.83607  -1.46523 
 N                     1.0153    1.87987  -1.24508 
 C                     2.28857   2.23837  -1.81597 
 C                     3.05628   0.96777  -2.26971 
 O                     2.16566   0.16108  -3.01647 
 C                     4.38975   1.17759  -3.02417 
 C                     5.47582   1.89047  -2.21253 
 O                     6.56289   2.1749   -2.97563 
 O                     5.38313   2.1666   -1.02074 
 C                     1.94414   3.35293  -2.82745 
 C                     1.60765   2.95248  -4.27858 
 O                     0.73827   3.81932  -2.25516 
 C                    -1.5027    1.9809    0.13675 
 C                    -2.79095   1.9704    0.69977 
 Cl                   -3.16485   0.87637   1.97995 
 C                    -3.77441   2.85243   0.21987 
 C                    -3.46893   3.74315  -0.82539 
 H                    -2.69432   5.1801   -2.64151 
 H                     2.87553   2.70586  -1.02219 
 H                     3.28084   0.3946   -1.3678 
 H                     1.33244   0.25254  -2.5641 
 H                     4.24021   1.7237   -3.95171 
 H                     4.789     0.2045   -3.31081 
 H                     7.2188    2.60254  -2.44658 
 H                     2.70046   4.13863  -2.81789 
 H                     0.85316   2.16649  -4.31358 
 H                     1.20974   3.8077   -4.82464 
 H                     2.47718   2.60055  -4.82769 
 H                    -0.76108   1.29642   0.52245 
 H                    -4.76386   2.84325   0.6532 
 H                    -4.2395    4.41009  -1.18343 
 

 GradGradGradGradGradGradGradGradGradGradGradGradGradGradGradGradGradGrad
 Berny optimization.
 Initialization pass.
                           ----------------------------
                           !    Initial Parameters    !
                           ! (Angstroms and Degrees)  !
 --------------------------                            --------------------------
 ! Name  Definition              Value          Derivative Info.                !
 --------------------------------------------------------------------------------
 ! R1    R(1,2)                  1.3672         estimate D2E/DX2                !
 ! R2    R(1,21)                 0.9455         estimate D2E/DX2                !
 ! R3    R(2,3)                  1.424          estimate D2E/DX2                !
 ! R4    R(2,20)                 1.4112         estimate D2E/DX2                !
 ! R5    R(3,4)                  1.4922         estimate D2E/DX2                !
 ! R6    R(3,16)                 1.4157         estimate D2E/DX2                !
 ! R7    R(4,5)                  1.2699         estimate D2E/DX2                !
 ! R8    R(4,15)                 1.3678         estimate D2E/DX2                !
 ! R9    R(5,6)                  1.4407         estimate D2E/DX2                !
 ! R10   R(6,7)                  1.5523         estimate D2E/DX2                !
 ! R11   R(6,13)                 1.544          estimate D2E/DX2                !
 ! R12   R(6,22)                 1.0923         estimate D2E/DX2                !
 ! R13   R(7,8)                  1.4148         estimate D2E/DX2                !
 ! R14   R(7,9)                  1.5464         estimate D2E/DX2                !
 ! R15   R(7,23)                 1.092          estimate D2E/DX2                !
 ! R16   R(8,24)                 0.9525         estimate D2E/DX2                !
 ! R17   R(9,10)                 1.5318         estimate D2E/DX2                !
 ! R18   R(9,25)                 1.0867         estimate D2E/DX2                !
 ! R19   R(9,26)                 1.0902         estimate D2E/DX2                !
 ! R20   R(10,11)                1.3583         estimate D2E/DX2                !
 ! R21   R(10,12)                1.2269         estimate D2E/DX2                !
 ! R22   R(11,27)                0.945          estimate D2E/DX2                !
 ! R23   R(13,14)                1.5425         estimate D2E/DX2                !
 ! R24   R(13,15)                1.4139         estimate D2E/DX2                !
 ! R25   R(13,28)                1.0906         estimate D2E/DX2                !
 ! R26   R(14,29)                1.0901         estimate D2E/DX2                !
 ! R27   R(14,30)                1.0899         estimate D2E/DX2                !
 ! R28   R(14,31)                1.0869         estimate D2E/DX2                !
 ! R29   R(16,17)                1.4059         estimate D2E/DX2                !
 ! R30   R(16,32)                1.0804         estimate D2E/DX2                !
 ! R31   R(17,18)                1.725          estimate D2E/DX2                !
 ! R32   R(17,19)                1.4055         estimate D2E/DX2                !
 ! R33   R(19,20)                1.4069         estimate D2E/DX2                !
 ! R34   R(19,33)                1.0802         estimate D2E/DX2                !
 ! R35   R(20,34)                1.0802         estimate D2E/DX2                !
 ! A1    A(2,1,21)             114.3095         estimate D2E/DX2                !
 ! A2    A(1,2,3)              122.5292         estimate D2E/DX2                !
 ! A3    A(1,2,20)             117.6239         estimate D2E/DX2                !
 ! A4    A(3,2,20)             119.8449         estimate D2E/DX2                !
 ! A5    A(2,3,4)              122.9017         estimate D2E/DX2                !
 ! A6    A(2,3,16)             118.8856         estimate D2E/DX2                !
 ! A7    A(4,3,16)             118.2119         estimate D2E/DX2                !
 ! A8    A(3,4,5)              122.9696         estimate D2E/DX2                !
 ! A9    A(3,4,15)             123.7151         estimate D2E/DX2                !
 ! A10   A(5,4,15)             113.3153         estimate D2E/DX2                !
 ! A11   A(4,5,6)              107.7578         estimate D2E/DX2                !
 ! A12   A(5,6,7)              110.4401         estimate D2E/DX2                !
 ! A13   A(5,6,13)             104.0081         estimate D2E/DX2                !
 ! A14   A(5,6,22)             107.0643         estimate D2E/DX2                !
 ! A15   A(7,6,13)             120.6437         estimate D2E/DX2                !
 ! A16   A(7,6,22)             107.2759         estimate D2E/DX2                !
 ! A17   A(13,6,22)            106.6772         estimate D2E/DX2                !
 ! A18   A(6,7,8)              108.0384         estimate D2E/DX2                !
 ! A19   A(6,7,9)              117.2582         estimate D2E/DX2                !
 ! A20   A(6,7,23)             106.8526         estimate D2E/DX2                !
 ! A21   A(8,7,9)              111.2654         estimate D2E/DX2                !
 ! A22   A(8,7,23)             105.4338         estimate D2E/DX2                !
 ! A23   A(9,7,23)             107.2694         estimate D2E/DX2                !
 ! A24   A(7,8,24)             104.1972         estimate D2E/DX2                !
 ! A25   A(7,9,10)             114.5836         estimate D2E/DX2                !
 ! A26   A(7,9,25)             111.4665         estimate D2E/DX2                !
 ! A27   A(7,9,26)             108.842          estimate D2E/DX2                !
 ! A28   A(10,9,25)            108.4178         estimate D2E/DX2                !
 ! A29   A(10,9,26)            107.1604         estimate D2E/DX2                !
 ! A30   A(25,9,26)            105.9343         estimate D2E/DX2                !
 ! A31   A(9,10,11)            111.5437         estimate D2E/DX2                !
 ! A32   A(9,10,12)            124.4631         estimate D2E/DX2                !
 ! A33   A(11,10,12)           123.9923         estimate D2E/DX2                !
 ! A34   A(10,11,27)           109.6169         estimate D2E/DX2                !
 ! A35   A(6,13,14)            118.525          estimate D2E/DX2                !
 ! A36   A(6,13,15)             99.3932         estimate D2E/DX2                !
 ! A37   A(6,13,28)            111.0756         estimate D2E/DX2                !
 ! A38   A(14,13,15)           106.2823         estimate D2E/DX2                !
 ! A39   A(14,13,28)           110.2762         estimate D2E/DX2                !
 ! A40   A(15,13,28)           110.5037         estimate D2E/DX2                !
 ! A41   A(13,14,29)           111.6155         estimate D2E/DX2                !
 ! A42   A(13,14,30)           110.3194         estimate D2E/DX2                !
 ! A43   A(13,14,31)           112.6317         estimate D2E/DX2                !
 ! A44   A(29,14,30)           107.2772         estimate D2E/DX2                !
 ! A45   A(29,14,31)           107.6997         estimate D2E/DX2                !
 ! A46   A(30,14,31)           107.0388         estimate D2E/DX2                !
 ! A47   A(4,15,13)            109.0622         estimate D2E/DX2                !
 ! A48   A(3,16,17)            120.8438         estimate D2E/DX2                !
 ! A49   A(3,16,32)            120.3875         estimate D2E/DX2                !
 ! A50   A(17,16,32)           118.7681         estimate D2E/DX2                !
 ! A51   A(16,17,18)           120.0359         estimate D2E/DX2                !
 ! A52   A(16,17,19)           119.9815         estimate D2E/DX2                !
 ! A53   A(18,17,19)           119.9825         estimate D2E/DX2                !
 ! A54   A(17,19,20)           119.9378         estimate D2E/DX2                !
 ! A55   A(17,19,33)           119.9088         estimate D2E/DX2                !
 ! A56   A(20,19,33)           120.1532         estimate D2E/DX2                !
 ! A57   A(2,20,19)            120.505          estimate D2E/DX2                !
 ! A58   A(2,20,34)            120.6602         estimate D2E/DX2                !
 ! A59   A(19,20,34)           118.8346         estimate D2E/DX2                !
 ! D1    D(21,1,2,3)          -179.3627         estimate D2E/DX2                !
 ! D2    D(21,1,2,20)            1.1433         estimate D2E/DX2                !
 ! D3    D(1,2,3,4)              0.6072         estimate D2E/DX2                !
 ! D4    D(1,2,3,16)          -179.0687         estimate D2E/DX2                !
 ! D5    D(20,2,3,4)          -179.9097         estimate D2E/DX2                !
 ! D6    D(20,2,3,16)            0.4144         estimate D2E/DX2                !
 ! D7    D(1,2,20,19)          179.3236         estimate D2E/DX2                !
 ! D8    D(1,2,20,34)           -0.4844         estimate D2E/DX2                !
 ! D9    D(3,2,20,19)           -0.1845         estimate D2E/DX2                !
 ! D10   D(3,2,20,34)         -179.9925         estimate D2E/DX2                !
 ! D11   D(2,3,4,5)           -164.7216         estimate D2E/DX2                !
 ! D12   D(2,3,4,15)            15.2812         estimate D2E/DX2                !
 ! D13   D(16,3,4,5)            14.9564         estimate D2E/DX2                !
 ! D14   D(16,3,4,15)         -165.0408         estimate D2E/DX2                !
 ! D15   D(2,3,16,17)           -0.3827         estimate D2E/DX2                !
 ! D16   D(2,3,16,32)          179.9015         estimate D2E/DX2                !
 ! D17   D(4,3,16,17)          179.9261         estimate D2E/DX2                !
 ! D18   D(4,3,16,32)            0.2103         estimate D2E/DX2                !
 ! D19   D(3,4,5,6)           -174.3646         estimate D2E/DX2                !
 ! D20   D(15,4,5,6)             5.6329         estimate D2E/DX2                !
 ! D21   D(3,4,15,13)         -167.9607         estimate D2E/DX2                !
 ! D22   D(5,4,15,13)           12.0419         estimate D2E/DX2                !
 ! D23   D(4,5,6,7)           -150.0323         estimate D2E/DX2                !
 ! D24   D(4,5,6,13)           -19.219          estimate D2E/DX2                !
 ! D25   D(4,5,6,22)            93.4853         estimate D2E/DX2                !
 ! D26   D(5,6,7,8)             47.9098         estimate D2E/DX2                !
 ! D27   D(5,6,7,9)            174.5559         estimate D2E/DX2                !
 ! D28   D(5,6,7,23)           -65.1125         estimate D2E/DX2                !
 ! D29   D(13,6,7,8)           -73.4927         estimate D2E/DX2                !
 ! D30   D(13,6,7,9)            53.1535         estimate D2E/DX2                !
 ! D31   D(13,6,7,23)          173.485          estimate D2E/DX2                !
 ! D32   D(22,6,7,8)           164.2606         estimate D2E/DX2                !
 ! D33   D(22,6,7,9)           -69.0933         estimate D2E/DX2                !
 ! D34   D(22,6,7,23)           51.2383         estimate D2E/DX2                !
 ! D35   D(5,6,13,14)          -89.9865         estimate D2E/DX2                !
 ! D36   D(5,6,13,15)           24.4293         estimate D2E/DX2                !
 ! D37   D(5,6,13,28)          140.8036         estimate D2E/DX2                !
 ! D38   D(7,6,13,14)           34.4958         estimate D2E/DX2                !
 ! D39   D(7,6,13,15)          148.9116         estimate D2E/DX2                !
 ! D40   D(7,6,13,28)          -94.7142         estimate D2E/DX2                !
 ! D41   D(22,6,13,14)         157.0306         estimate D2E/DX2                !
 ! D42   D(22,6,13,15)         -88.5536         estimate D2E/DX2                !
 ! D43   D(22,6,13,28)          27.8206         estimate D2E/DX2                !
 ! D44   D(6,7,8,24)           -38.0412         estimate D2E/DX2                !
 ! D45   D(9,7,8,24)          -168.1029         estimate D2E/DX2                !
 ! D46   D(23,7,8,24)           75.9258         estimate D2E/DX2                !
 ! D47   D(6,7,9,10)            62.3065         estimate D2E/DX2                !
 ! D48   D(6,7,9,25)           -61.2828         estimate D2E/DX2                !
 ! D49   D(6,7,9,26)          -177.7632         estimate D2E/DX2                !
 ! D50   D(8,7,9,10)          -172.6426         estimate D2E/DX2                !
 ! D51   D(8,7,9,25)            63.7681         estimate D2E/DX2                !
 ! D52   D(8,7,9,26)           -52.7123         estimate D2E/DX2                !
 ! D53   D(23,7,9,10)          -57.8054         estimate D2E/DX2                !
 ! D54   D(23,7,9,25)          178.6053         estimate D2E/DX2                !
 ! D55   D(23,7,9,26)           62.1249         estimate D2E/DX2                !
 ! D56   D(7,9,10,11)         -173.1922         estimate D2E/DX2                !
 ! D57   D(7,9,10,12)            7.1326         estimate D2E/DX2                !
 ! D58   D(25,9,10,11)         -47.9869         estimate D2E/DX2                !
 ! D59   D(25,9,10,12)         132.3379         estimate D2E/DX2                !
 ! D60   D(26,9,10,11)          65.9459         estimate D2E/DX2                !
 ! D61   D(26,9,10,12)        -113.7292         estimate D2E/DX2                !
 ! D62   D(9,10,11,27)        -179.2331         estimate D2E/DX2                !
 ! D63   D(12,10,11,27)          0.4438         estimate D2E/DX2                !
 ! D64   D(6,13,14,29)          50.3719         estimate D2E/DX2                !
 ! D65   D(6,13,14,30)         169.5408         estimate D2E/DX2                !
 ! D66   D(6,13,14,31)         -70.9271         estimate D2E/DX2                !
 ! D67   D(15,13,14,29)        -60.2545         estimate D2E/DX2                !
 ! D68   D(15,13,14,30)         58.9144         estimate D2E/DX2                !
 ! D69   D(15,13,14,31)        178.4465         estimate D2E/DX2                !
 ! D70   D(28,13,14,29)        179.9493         estimate D2E/DX2                !
 ! D71   D(28,13,14,30)        -60.8819         estimate D2E/DX2                !
 ! D72   D(28,13,14,31)         58.6502         estimate D2E/DX2                !
 ! D73   D(6,13,15,4)          -22.0532         estimate D2E/DX2                !
 ! D74   D(14,13,15,4)         101.4907         estimate D2E/DX2                !
 ! D75   D(28,13,15,4)        -138.8612         estimate D2E/DX2                !
 ! D76   D(3,16,17,18)        -179.8413         estimate D2E/DX2                !
 ! D77   D(3,16,17,19)           0.1161         estimate D2E/DX2                !
 ! D78   D(32,16,17,18)         -0.121          estimate D2E/DX2                !
 ! D79   D(32,16,17,19)        179.8364         estimate D2E/DX2                !
 ! D80   D(16,17,19,20)          0.122          estimate D2E/DX2                !
 ! D81   D(16,17,19,33)        179.9896         estimate D2E/DX2                !
 ! D82   D(18,17,19,20)       -179.9205         estimate D2E/DX2                !
 ! D83   D(18,17,19,33)         -0.053          estimate D2E/DX2                !
 ! D84   D(17,19,20,2)          -0.0867         estimate D2E/DX2                !
 ! D85   D(17,19,20,34)        179.7248         estimate D2E/DX2                !
 ! D86   D(33,19,20,2)        -179.9539         estimate D2E/DX2                !
 ! D87   D(33,19,20,34)         -0.1424         estimate D2E/DX2                !
 --------------------------------------------------------------------------------
 Trust Radius=3.00D-01 FncErr=1.00D-07 GrdErr=1.00D-06
 Number of steps in this run=    191 maximum allowed number of steps=    204.
 GradGradGradGradGradGradGradGradGradGradGradGradGradGradGradGradGradGrad

                          Input orientation:                          
 ---------------------------------------------------------------------
 Center     Atomic      Atomic             Coordinates (Angstroms)
 Number     Number       Type             X           Y           Z
 ---------------------------------------------------------------------
      1          8           0       -1.950739    4.640032   -2.419298
      2          6           0       -2.179034    3.760776   -1.397567
      3          6           0       -1.176289    2.873814   -0.912178
      4          6           0        0.209108    2.836071   -1.465225
      5          7           0        1.015298    1.879867   -1.245082
      6          6           0        2.288570    2.238369   -1.815970
      7          6           0        3.056284    0.967765   -2.269713
      8          8           0        2.165655    0.161083   -3.016466
      9          6           0        4.389745    1.177594   -3.024167
     10          6           0        5.475820    1.890465   -2.212530
     11          8           0        6.562892    2.174899   -2.975634
     12          8           0        5.383131    2.166595   -1.020742
     13          6           0        1.944135    3.352933   -2.827447
     14          6           0        1.607654    2.952475   -4.278582
     15          8           0        0.738269    3.819315   -2.255159
     16          6           0       -1.502701    1.980899    0.136745
     17          6           0       -2.790947    1.970402    0.699773
     18         17           0       -3.164845    0.876371    1.979953
     19          6           0       -3.774413    2.852429    0.219874
     20          6           0       -3.468930    3.743153   -0.825391
     21          1           0       -2.694324    5.180097   -2.641512
     22          1           0        2.875529    2.705863   -1.022192
     23          1           0        3.280835    0.394595   -1.367795
     24          1           0        1.332438    0.252541   -2.564102
     25          1           0        4.240213    1.723695   -3.951714
     26          1           0        4.789000    0.204495   -3.310805
     27          1           0        7.218799    2.602536   -2.446579
     28          1           0        2.700459    4.138628   -2.817891
     29          1           0        0.853157    2.166488   -4.313578
     30          1           0        1.209735    3.807701   -4.824639
     31          1           0        2.477179    2.600548   -4.827687
     32          1           0       -0.761078    1.296416    0.522451
     33          1           0       -4.763860    2.843248    0.653201
     34          1           0       -4.239500    4.410087   -1.183433
 ---------------------------------------------------------------------
                    Distance matrix (angstroms):
                    1          2          3          4          5
     1  O    0.000000
     2  C    1.367166   0.000000
     3  C    2.447593   1.424009   0.000000
     4  C    2.971442   2.561812   1.492183   0.000000
     5  N    4.218373   3.710098   2.429364   1.269934   0.000000
     6  C    4.909555   4.738383   3.636740   2.191901   1.440715
     7  C    6.211135   5.997508   4.836383   3.499168   2.459151
     8  O    6.112470   5.869834   4.791193   3.659233   2.723112
     9  C    7.249557   7.243446   6.190185   4.760102   3.878817
    10  C    7.921910   7.922059   6.848974   5.402859   4.564244
    11  O    8.880783   9.023667   8.039979   6.564225   5.818733
    12  O    7.865081   7.737554   6.598328   5.236056   4.382979
    13  C    4.122287   4.383083   3.692541   2.265638   2.352985
    14  C    4.355106   4.826241   4.369119   3.143956   3.271620
    15  O    2.816253   3.041307   2.522519   1.367763   2.204191
    16  C    3.715519   2.445302   1.415656   2.495580   2.874017
    17  C    4.190642   2.824661   2.453907   3.799596   4.275296
    18  Cl   5.915455   4.549644   4.038385   5.205116   5.374146
    19  C    3.672403   2.446721   2.834122   4.325305   5.102284
    20  C    2.376938   1.411215   2.453464   3.841894   4.874041
    21  H    0.945499   1.956373   3.257908   3.912547   5.157793
    22  H    5.383844   5.177099   4.056789   2.706110   2.047537
    23  H    6.819000   6.414221   5.120553   3.925023   2.711780
    24  H    5.481815   5.098917   3.986682   3.023909   2.118627
    25  H    7.012931   7.202784   6.316648   4.865163   4.213113
    26  H    8.117441   8.053640   6.961562   5.595245   4.616807
    27  H    9.393219   9.526868   8.538471   7.081904   6.359974
    28  H    4.695096   5.096032   4.501186   3.119806   3.227305
    29  H    4.191485   4.498784   4.023491   2.996040   3.086116
    30  H    4.057960   4.819832   4.676816   3.637442   4.070329
    31  H    5.437489   5.898489   5.362249   4.062729   3.935929
    32  H    4.609658   3.430764   2.172267   2.694931   2.572955
    33  H    4.536776   3.424738   3.914334   5.405385   6.158754
    34  H    2.611257   2.170939   3.437583   4.727266   5.832557
                    6          7          8          9         10
     6  C    0.000000
     7  C    1.552321   0.000000
     8  O    2.402377   1.414778   0.000000
     9  C    2.645736   1.546398   2.445390   0.000000
    10  C    3.230613   2.590135   3.820244   1.531829   0.000000
    11  O    4.429298   3.775155   4.836612   2.391556   1.358292
    12  O    3.195911   2.900231   4.284524   2.445128   1.226865
    13  C    1.544012   2.690162   3.205106   3.278995   3.871658
    14  C    2.652933   3.173824   3.113868   3.530409   4.512111
    15  O    2.257368   3.674880   3.999960   4.572017   5.115337
    16  C    4.272367   5.253744   5.168298   6.734804   7.363900
    17  C    5.674704   6.634247   6.453834   8.127645   8.765120
    18  Cl   6.782610   7.534617   7.340986   9.066630   9.657453
    19  C    6.425068   7.510554   7.280223   8.943285   9.612948
    20  C    6.032779   7.236523   7.027132   8.554267   9.239327
    21  H    5.845042   7.138030   6.996463   8.145581   8.817991
    22  H    1.092316   2.147083   3.310129   2.938768   2.973767
    23  H    2.141250   1.091972   2.004063   2.141573   2.787322
    24  H    2.327531   1.889406   0.952496   3.227152   4.469229
    25  H    2.938571   2.191403   2.760477   1.086706   2.139929
    26  H    3.552932   2.160731   2.640163   1.090178   2.126129
    27  H    4.983718   4.475521   5.640898   3.219878   1.897314
    28  H    2.187346   3.237512   4.018247   3.415254   3.622613
    29  H    2.881601   3.235443   2.725216   3.892036   5.085234
    30  H    3.560727   4.242950   4.181040   4.502402   5.357088
    31  H    3.039274   3.089429   3.054269   2.989212   4.041672
    32  H    3.956746   4.740933   4.730611   6.254886   6.836074
    33  H    7.496629   8.556607   8.287258  10.004295  10.675732
    34  H    6.908847   8.139905   7.901902   9.396871  10.089350
                   11         12         13         14         15
    11  O    0.000000
    12  O    2.283311   0.000000
    13  C    4.768924   4.061807   0.000000
    14  C    5.182343   5.048302   1.542524   0.000000
    15  O    6.095033   5.082323   1.413909   2.366745   0.000000
    16  C    8.647446   6.984908   4.748641   5.487566   3.758048
    17  C   10.052101   8.355490   6.064130   6.715369   4.960390
    18  Cl  10.994221   9.150778   7.439498   8.139792   6.467719
    19  C   10.841134   9.266613   6.499112   7.015181   5.236884
    20  C   10.378845   8.993480   5.784615   6.190428   4.444160
    21  H    9.738527   8.772307   4.988828   5.113640   3.712639
    22  H    4.206484   2.564933   2.131933   3.503199   2.707003
    23  H    4.065283   2.771295   3.559370   4.220778   4.356692
    24  H    5.587707   4.738531   3.171112   3.210114   3.629099
    25  H    2.559522   3.176951   3.031562   2.923544   4.419676
    26  H    2.672363   3.073632   4.270779   4.313809   5.530799
    27  H    0.944980   2.364896   5.341370   5.913006   6.596549
    28  H    4.335839   3.783568   1.090612   2.175960   2.066112
    29  H    5.864404   5.600307   2.192366   1.090076   2.642371
    30  H    5.894163   5.880484   2.175990   1.089922   2.612402
    31  H    4.506032   4.808919   2.202539   1.086942   3.335731
    32  H    8.163876   6.394526   4.771714   5.603868   4.040814
    33  H   11.912617  10.306375   7.574423   8.057953   6.299578
    34  H   11.175854   9.882042   6.485191   6.774496   5.125992
                   16         17         18         19         20
    16  C    0.000000
    17  C    1.405948   0.000000
    18  Cl   2.716638   1.724982   0.000000
    19  C    2.434574   1.405518   2.715558   0.000000
    20  C    2.810214   2.434837   4.022544   1.406872   0.000000
    21  H    4.401539   4.634184   6.332566   3.843457   2.441950
    22  H    4.586677   5.967832   6.988994   6.766531   6.431707
    23  H    5.259488   6.604888   7.279170   7.637942   7.554229
    24  H    4.280165   5.532290   6.423640   6.371018   6.185517
    25  H    7.054269   8.434122   9.525624   9.105516   8.560549
    26  H    7.390989   8.755499   9.576387   9.633758   9.321630
    27  H    9.117267  10.511619  11.419015  11.314731  10.869996
    28  H    5.572452   6.872460   8.250056   7.266794   6.495215
    29  H    5.038838   6.200938   7.577419   6.514377   5.773539
    30  H    5.942209   7.064011   8.604192   7.155514   6.155328
    31  H    6.392886   7.661792   9.008284   8.038888   7.258108
    32  H    1.080412   2.146175   2.842331   3.404837   3.890458
    33  H    3.412555   2.157873   2.861071   1.080214   2.161691
    34  H    3.890230   3.405412   4.863028   2.147528   1.080173
                   21         22         23         24         25
    21  H    0.000000
    22  H    6.306131   0.000000
    23  H    7.760535   2.371850   0.000000
    24  H    6.364088   3.282896   2.290760   0.000000
    25  H    7.858190   3.377738   3.059992   3.541880   0.000000
    26  H    9.011365   3.893066   2.466979   3.536622   1.737786
    27  H   10.244600   4.572040   4.641803   6.339206   3.451053
    28  H    5.497222   2.303910   4.056772   4.127658   3.080308
    29  H    4.945934   3.900530   4.208428   2.636962   3.434990
    30  H    4.678802   4.295058   5.280958   4.214765   3.780063
    31  H    6.178825   3.827736   4.181261   3.456499   2.155108
    32  H    5.369458   4.194922   4.552293   3.872892   6.724108
    33  H    4.538610   7.822153   8.648552   7.363943  10.175066
    34  H    2.259752   7.318061   8.527227   7.087872   9.315880
                   26         27         28         29         30
    26  H    0.000000
    27  H    3.521564   0.000000
    28  H    4.481336   4.786737   0.000000
    29  H    4.510635   6.648099   3.088518   0.000000
    30  H    5.299616   6.573921   2.521668   1.755537   0.000000
    31  H    3.658759   5.305906   2.540635   1.757886   1.750326
    32  H    6.832972   8.613915   5.587333   5.172036   6.227522
    33  H   10.673963  12.379446   8.333219   7.528464   8.162153
    34  H   10.184622  11.668564   7.134996   6.384881   6.581445
                   31         32         33         34
    31  H    0.000000
    32  H    6.388352   0.000000
    33  H    9.084695   4.293256   0.000000
    34  H    7.852948   4.970353   2.470458   0.000000
 Stoichiometry    C13H14ClNO5
 Framework group  C1[X(C13H14ClNO5)]
 Deg. of freedom    96
 Full point group                 C1      NOp   1
 Largest Abelian subgroup         C1      NOp   1
 Largest concise Abelian subgroup C1      NOp   1
                         Standard orientation:                         
 ---------------------------------------------------------------------
 Center     Atomic      Atomic             Coordinates (Angstroms)
 Number     Number       Type             X           Y           Z
 ---------------------------------------------------------------------
      1          8           0        2.183721    2.868593   -0.281695
      2          6           0        2.715277    1.610356   -0.223112
      3          6           0        1.906968    0.438575   -0.186162
      4          6           0        0.415804    0.481064   -0.221333
      5          7           0       -0.311412   -0.512336    0.090185
      6          6           0       -1.680437   -0.158422   -0.185811
      7          6           0       -2.638151   -0.897890    0.786646
      8          8           0       -2.134624   -0.742952    2.099677
      9          6           0       -4.139487   -0.534260    0.715155
     10          6           0       -4.806544   -0.842510   -0.628912
     11          8           0       -6.077651   -0.366019   -0.675800
     12          8           0       -4.267012   -1.449039   -1.548817
     13          6           0       -1.661875    1.384110   -0.250817
     14          6           0       -1.905588    2.179121    1.048391
     15          8           0       -0.303789    1.584485   -0.589331
     16          6           0        2.538734   -0.825742   -0.105811
     17          6           0        3.940357   -0.930259   -0.070920
     18         17           0        4.688418   -2.481760    0.022969
     19          6           0        4.732470    0.230011   -0.113468
     20          6           0        4.121340    1.495001   -0.188350
     21          1           0        2.826255    3.561605   -0.310917
     22          1           0       -1.905817   -0.511989   -1.194448
     23          1           0       -2.551954   -1.963913    0.566262
     24          1           0       -1.189691   -0.803179    1.996128
     25          1           0       -4.306401    0.513793    0.948933
     26          1           0       -4.675463   -1.099996    1.477493
     27          1           0       -6.466444   -0.580872   -1.509866
     28          1           0       -2.311914    1.750983   -1.045982
     29          1           0       -1.266577    1.829103    1.859205
     30          1           0       -1.683037    3.234780    0.893520
     31          1           0       -2.935799    2.117508    1.389434
     32          1           0        1.948930   -1.730428   -0.074757
     33          1           0        5.809254    0.148352   -0.086423
     34          1           0        4.747062    2.375059   -0.215589
 ---------------------------------------------------------------------
 Rotational constants (GHZ):      0.5978786      0.1363087      0.1203446
 Standard basis: 6-31+G(d,p) (6D, 7F)
 There are   454 symmetry adapted basis functions of A   symmetry.
 Integral buffers will be    131072 words long.
 Raffenetti 2 integral format.
 Two-electron integral symmetry is turned on.
   454 basis functions,   762 primitive gaussians,   454 cartesian basis functions
    78 alpha electrons       78 beta electrons
       nuclear repulsion energy      1661.9201443370 Hartrees.
 NAtoms=   34 NActive=   34 NUniq=   34 SFac= 1.00D+00 NAtFMM=   50 NAOKFM=F Big=F
 Using the following non-standard input for PCM:
 radii=UA0
 --- end of non-standard input.
 ------------------------------------------------------------------------------
 United Atom Topological Model (UA0  parameters set).
  Nord Group  Hybr  Charge Alpha Radius          Bonded to
    1   OH    *     0.00   1.10  1.850   C2   [s]
    2   C     *     0.00   1.10  1.925   O1   [s]  C3   [s]  C20  [s]
    3   C     *     0.00   1.10  1.925   C2   [s]  C4   [s]  C16  [s]
    4   C     *     0.00   1.10  1.925   C3   [s]  N5   [d]  O15  [s]
    5   N     *     0.00   1.10  1.830   C4   [d]  C6   [s]
    6   CH    *     0.00   1.10  2.125   N5   [s]  C7   [s]  C13  [s]
    7   CH    *     0.00   1.10  2.125   C6   [s]  O8   [s]  C9   [s]
    8   OH    *     0.00   1.10  1.850   C7   [s]
    9   CH2   *     0.00   1.10  2.325   C7   [s]  C10  [s]
   10   C     *     0.00   1.10  1.925   C9   [s]  O11  [s]  O12  [d]
   11   OH    *     0.00   1.10  1.850   C10  [s]
   12   O     *     0.00   1.10  1.750   C10  [d]
   13   CH    *     0.00   1.10  2.125   C6   [s]  C14  [s]  O15  [s]
   14   CH3   *     0.00   1.10  2.525   C13  [s]
   15   O     *     0.00   1.10  1.750   C4   [s]  C13  [s]
   16   CH    *     0.00   1.10  2.125   C3   [s]  C17  [s]
   17   C     *     0.00   1.10  1.925   C16  [s] Cl18  [s]  C19  [s]
   18  Cl     *     0.00   1.10  1.973   C17  [s]
   19   CH    *     0.00   1.10  2.125   C17  [s]  C20  [s]
   20   CH    *     0.00   1.10  2.125   C2   [s]  C19  [s]
 ------------------------------------------------------------------------------
 Polarizable Continuum Model (PCM)
 =================================
 Model                : PCM.
 Atomic radii         : UA0 (Simple United Atom Topological Model).
 Polarization charges : Total charges.
 Charge compensation  : None.
 Solution method      : Matrix inversion.
 Cavity type          : Scaled VdW (van der Waals Surface) (Alpha=1.100).
 Cavity algorithm     : GePol (No added spheres)
                        Default sphere list used, NSphG=   20.
                        Lebedev-Laikov grids with approx.  5.0 points / Ang**2.
                        Smoothing algorithm: Karplus/York (Gamma=1.0000).
                        Polarization charges: spherical gaussians, with
                                              point-specific exponents (IZeta= 3).
                        Self-potential: point-specific (ISelfS= 7).
                        Self-field    : sphere-specific E.n sum rule (ISelfD= 2).
 1st derivatives      : Analytical E(r).r(x)/FMM algorithm (CHGder, D1EAlg=3).
                        Cavity 1st derivative terms included.
 Solvent              : Methanol, Eps=  32.613000 Eps(inf)=   1.765709
 ------------------------------------------------------------------------------
 Spheres list:
 ISph  on   Nord    Re0     Alpha      Xe            Ye            Ze
    1   O      1    1.850   1.100      2.183721      2.868593     -0.281695
    2   C      2    1.925   1.100      2.715277      1.610356     -0.223112
    3   C      3    1.925   1.100      1.906968      0.438575     -0.186162
    4   C      4    1.925   1.100      0.415804      0.481064     -0.221333
    5   N      5    1.830   1.100     -0.311412     -0.512336      0.090185
    6   C      6    2.125   1.100     -1.680437     -0.158422     -0.185811
    7   C      7    2.125   1.100     -2.638151     -0.897890      0.786646
    8   O      8    1.850   1.100     -2.134624     -0.742952      2.099677
    9   C      9    2.325   1.100     -4.139487     -0.534260      0.715155
   10   C     10    1.925   1.100     -4.806544     -0.842510     -0.628912
   11   O     11    1.850   1.100     -6.077651     -0.366019     -0.675800
   12   O     12    1.750   1.100     -4.267012     -1.449039     -1.548817
   13   C     13    2.125   1.100     -1.661875      1.384110     -0.250817
   14   C     14    2.525   1.100     -1.905588      2.179121      1.048391
   15   O     15    1.750   1.100     -0.303789      1.584485     -0.589331
   16   C     16    2.125   1.100      2.538734     -0.825742     -0.105811
   17   C     17    1.925   1.100      3.940357     -0.930259     -0.070920
   18  Cl     18    1.973   1.100      4.688418     -2.481760      0.022969
   19   C     19    2.125   1.100      4.732470      0.230011     -0.113468
   20   C     20    2.125   1.100      4.121340      1.495001     -0.188350
 ------------------------------------------------------------------------------
 One-electron integrals computed using PRISM.
 NBasis=   454 RedAO= T  NBF=   454
 NBsUse=   452 1.00D-06 NBFU=   452
 Harris functional with IExCor= 1009 diagonalized for initial guess.
 ExpMin= 4.38D-02 ExpMax= 2.52D+04 ExpMxC= 3.78D+03 IAcc=3 IRadAn=         5 AccDes= 0.00D+00
 HarFok:  IExCor= 1009 AccDes= 0.00D+00 IRadAn=         5 IDoV= 1
 ScaDFX=  1.000000  1.000000  1.000000  1.000000
 FoFCou: FMM=F IPFlag=           0 FMFlag=      100000 FMFlg1=           0
         NFxFlg=           0 DoJE=T BraDBF=F KetDBF=T FulRan=T
         Omega=  0.000000  0.000000  1.000000  0.000000  0.000000 ICntrl=     500 IOpCl=  0
         NMat0=    1 NMatS0=    1 NMatT0=    0 NMatD0=    1 NMtDS0=    0 NMtDT0=    0
         I1Cent=           4 NGrid=           0.
 Petite list used in FoFCou.
 Initial guess orbital symmetries:
       Occupied  (A) (A) (A) (A) (A) (A) (A) (A) (A) (A) (A) (A)
                 (A) (A) (A) (A) (A) (A) (A) (A) (A) (A) (A) (A)
                 (A) (A) (A) (A) (A) (A) (A) (A) (A) (A) (A) (A)
                 (A) (A) (A) (A) (A) (A) (A) (A) (A) (A) (A) (A)
                 (A) (A) (A) (A) (A) (A) (A) (A) (A) (A) (A) (A)
                 (A) (A) (A) (A) (A) (A) (A) (A) (A) (A) (A) (A)
                 (A) (A) (A) (A) (A) (A)
       Virtual   (A) (A) (A) (A) (A) (A) (A) (A) (A) (A) (A) (A)
                 (A) (A) (A) (A) (A) (A) (A) (A) (A) (A) (A) (A)
                 (A) (A) (A) (A) (A) (A) (A) (A) (A) (A) (A) (A)
                 (A) (A) (A) (A) (A) (A) (A) (A) (A) (A) (A) (A)
                 (A) (A) (A) (A) (A) (A) (A) (A) (A) (A) (A) (A)
                 (A) (A) (A) (A) (A) (A) (A) (A) (A) (A) (A) (A)
                 (A) (A) (A) (A) (A) (A) (A) (A) (A) (A) (A) (A)
                 (A) (A) (A) (A) (A) (A) (A) (A) (A) (A) (A) (A)
                 (A) (A) (A) (A) (A) (A) (A) (A) (A) (A) (A) (A)
                 (A) (A) (A) (A) (A) (A) (A) (A) (A) (A) (A) (A)
                 (A) (A) (A) (A) (A) (A) (A) (A) (A) (A) (A) (A)
                 (A) (A) (A) (A) (A) (A) (A) (A) (A) (A) (A) (A)
                 (A) (A) (A) (A) (A) (A) (A) (A) (A) (A) (A) (A)
                 (A) (A) (A) (A) (A) (A) (A) (A) (A) (A) (A) (A)
                 (A) (A) (A) (A) (A) (A) (A) (A) (A) (A) (A) (A)
                 (A) (A) (A) (A) (A) (A) (A) (A) (A) (A) (A) (A)
                 (A) (A) (A) (A) (A) (A) (A) (A) (A) (A) (A) (A)
                 (A) (A) (A) (A) (A) (A) (A) (A) (A) (A) (A) (A)
                 (A) (A) (A) (A) (A) (A) (A) (A) (A) (A) (A) (A)
                 (A) (A) (A) (A) (A) (A) (A) (A) (A) (A) (A) (A)
                 (A) (A) (A) (A) (A) (A) (A) (A) (A) (A) (A) (A)
                 (A) (A) (A) (A) (A) (A) (A) (A) (A) (A) (A) (A)
                 (A) (A) (A) (A) (A) (A) (A) (A) (A) (A) (A) (A)
                 (A) (A) (A) (A) (A) (A) (A) (A) (A) (A) (A) (A)
                 (A) (A) (A) (A) (A) (A) (A) (A) (A) (A) (A) (A)
                 (A) (A) (A) (A) (A) (A) (A) (A) (A) (A) (A) (A)
                 (A) (A) (A) (A) (A) (A) (A) (A) (A) (A) (A) (A)
                 (A) (A) (A) (A) (A) (A) (A) (A) (A) (A) (A) (A)
                 (A) (A) (A) (A) (A) (A) (A) (A) (A) (A) (A) (A)
                 (A) (A) (A) (A) (A) (A) (A) (A) (A) (A) (A) (A)
                 (A) (A) (A) (A) (A) (A) (A) (A) (A) (A) (A) (A)
                 (A) (A)
 The electronic state of the initial guess is 1-A.
 Requested convergence on RMS density matrix=1.00D-08 within 128 cycles.
 Requested convergence on MAX density matrix=1.00D-06.
 Requested convergence on             energy=1.00D-06.
 No special actions if energy rises.
 Error on total polarization charges =  0.01546
 SCF Done:  E(RM062X) =  -1394.54619532     A.U. after   15 cycles
             Convg  =    0.7599D-08             -V/T =  2.0067

 **********************************************************************

            Population analysis using the SCF density.

 **********************************************************************

 Orbital symmetries:
       Occupied  (A) (A) (A) (A) (A) (A) (A) (A) (A) (A) (A) (A)
                 (A) (A) (A) (A) (A) (A) (A) (A) (A) (A) (A) (A)
                 (A) (A) (A) (A) (A) (A) (A) (A) (A) (A) (A) (A)
                 (A) (A) (A) (A) (A) (A) (A) (A) (A) (A) (A) (A)
                 (A) (A) (A) (A) (A) (A) (A) (A) (A) (A) (A) (A)
                 (A) (A) (A) (A) (A) (A) (A) (A) (A) (A) (A) (A)
                 (A) (A) (A) (A) (A) (A)
       Virtual   (A) (A) (A) (A) (A) (A) (A) (A) (A) (A) (A) (A)
                 (A) (A) (A) (A) (A) (A) (A) (A) (A) (A) (A) (A)
                 (A) (A) (A) (A) (A) (A) (A) (A) (A) (A) (A) (A)
                 (A) (A) (A) (A) (A) (A) (A) (A) (A) (A) (A) (A)
                 (A) (A) (A) (A) (A) (A) (A) (A) (A) (A) (A) (A)
                 (A) (A) (A) (A) (A) (A) (A) (A) (A) (A) (A) (A)
                 (A) (A) (A) (A) (A) (A) (A) (A) (A) (A) (A) (A)
                 (A) (A) (A) (A) (A) (A) (A) (A) (A) (A) (A) (A)
                 (A) (A) (A) (A) (A) (A) (A) (A) (A) (A) (A) (A)
                 (A) (A) (A) (A) (A) (A) (A) (A) (A) (A) (A) (A)
                 (A) (A) (A) (A) (A) (A) (A) (A) (A) (A) (A) (A)
                 (A) (A) (A) (A) (A) (A) (A) (A) (A) (A) (A) (A)
                 (A) (A) (A) (A) (A) (A) (A) (A) (A) (A) (A) (A)
                 (A) (A) (A) (A) (A) (A) (A) (A) (A) (A) (A) (A)
                 (A) (A) (A) (A) (A) (A) (A) (A) (A) (A) (A) (A)
                 (A) (A) (A) (A) (A) (A) (A) (A) (A) (A) (A) (A)
                 (A) (A) (A) (A) (A) (A) (A) (A) (A) (A) (A) (A)
                 (A) (A) (A) (A) (A) (A) (A) (A) (A) (A) (A) (A)
                 (A) (A) (A) (A) (A) (A) (A) (A) (A) (A) (A) (A)
                 (A) (A) (A) (A) (A) (A) (A) (A) (A) (A) (A) (A)
                 (A) (A) (A) (A) (A) (A) (A) (A) (A) (A) (A) (A)
                 (A) (A) (A) (A) (A) (A) (A) (A) (A) (A) (A) (A)
                 (A) (A) (A) (A) (A) (A) (A) (A) (A) (A) (A) (A)
                 (A) (A) (A) (A) (A) (A) (A) (A) (A) (A) (A) (A)
                 (A) (A) (A) (A) (A) (A) (A) (A) (A) (A) (A) (A)
                 (A) (A) (A) (A) (A) (A) (A) (A) (A) (A) (A) (A)
                 (A) (A) (A) (A) (A) (A) (A) (A) (A) (A) (A) (A)
                 (A) (A) (A) (A) (A) (A) (A) (A) (A) (A) (A) (A)
                 (A) (A) (A) (A) (A) (A) (A) (A) (A) (A) (A) (A)
                 (A) (A) (A) (A) (A) (A) (A) (A) (A) (A) (A) (A)
                 (A) (A) (A) (A) (A) (A) (A) (A) (A) (A) (A) (A)
                 (A) (A)
 The electronic state is 1-A.
 Alpha  occ. eigenvalues -- -102.68299 -19.70288 -19.68884 -19.68483 -19.66046
 Alpha  occ. eigenvalues --  -19.64665 -14.75943 -10.71414 -10.66813 -10.64995
 Alpha  occ. eigenvalues --  -10.62679 -10.61695 -10.61576 -10.60021 -10.58847
 Alpha  occ. eigenvalues --  -10.58621 -10.58566 -10.57762 -10.57657 -10.54206
 Alpha  occ. eigenvalues --   -9.82981  -7.55384  -7.54722  -7.54711  -1.24407
 Alpha  occ. eigenvalues --   -1.23489  -1.19829  -1.16017  -1.15318  -1.03378
 Alpha  occ. eigenvalues --   -1.00801  -0.95253  -0.91389  -0.88662  -0.86439
 Alpha  occ. eigenvalues --   -0.83570  -0.80909  -0.76577  -0.73434  -0.71860
 Alpha  occ. eigenvalues --   -0.70834  -0.67061  -0.65610  -0.64303  -0.61616
 Alpha  occ. eigenvalues --   -0.59824  -0.59163  -0.58144  -0.57538  -0.56982
 Alpha  occ. eigenvalues --   -0.55400  -0.54265  -0.53954  -0.52421  -0.51930
 Alpha  occ. eigenvalues --   -0.51148  -0.50086  -0.49058  -0.47750  -0.47623
 Alpha  occ. eigenvalues --   -0.46527  -0.46292  -0.46200  -0.45539  -0.45035
 Alpha  occ. eigenvalues --   -0.43759  -0.42538  -0.41471  -0.41021  -0.40550
 Alpha  occ. eigenvalues --   -0.39086  -0.38867  -0.37258  -0.36726  -0.34218
 Alpha  occ. eigenvalues --   -0.34013  -0.30997  -0.28691
 Alpha virt. eigenvalues --   -0.03237   0.00508   0.00874   0.01560   0.01960
 Alpha virt. eigenvalues --    0.02454   0.02895   0.03080   0.03386   0.04213
 Alpha virt. eigenvalues --    0.04708   0.05115   0.05173   0.05509   0.06159
 Alpha virt. eigenvalues --    0.06564   0.06952   0.07305   0.07683   0.08053
 Alpha virt. eigenvalues --    0.08648   0.09299   0.09419   0.09743   0.09857
 Alpha virt. eigenvalues --    0.10812   0.11173   0.11562   0.11857   0.12495
 Alpha virt. eigenvalues --    0.13027   0.13186   0.13449   0.14215   0.14576
 Alpha virt. eigenvalues --    0.14979   0.15249   0.15787   0.16379   0.16718
 Alpha virt. eigenvalues --    0.16900   0.17236   0.17668   0.18289   0.18537
 Alpha virt. eigenvalues --    0.18998   0.19535   0.19757   0.20074   0.20349
 Alpha virt. eigenvalues --    0.20914   0.21235   0.21301   0.21559   0.22054
 Alpha virt. eigenvalues --    0.22473   0.22837   0.23132   0.23413   0.24068
 Alpha virt. eigenvalues --    0.24317   0.24937   0.25113   0.25379   0.25657
 Alpha virt. eigenvalues --    0.26242   0.26760   0.26971   0.27247   0.27520
 Alpha virt. eigenvalues --    0.27852   0.28345   0.29051   0.29481   0.29651
 Alpha virt. eigenvalues --    0.30111   0.30205   0.30923   0.31363   0.31480
 Alpha virt. eigenvalues --    0.31543   0.32235   0.32659   0.32755   0.33395
 Alpha virt. eigenvalues --    0.33954   0.34878   0.35160   0.35381   0.35585
 Alpha virt. eigenvalues --    0.36591   0.36944   0.37092   0.37844   0.38384
 Alpha virt. eigenvalues --    0.39070   0.40157   0.40684   0.41142   0.41591
 Alpha virt. eigenvalues --    0.42358   0.42715   0.42880   0.43286   0.43630
 Alpha virt. eigenvalues --    0.44442   0.45578   0.46089   0.46894   0.48031
 Alpha virt. eigenvalues --    0.49159   0.49682   0.51803   0.54712   0.55861
 Alpha virt. eigenvalues --    0.57686   0.59050   0.60475   0.64498   0.66679
 Alpha virt. eigenvalues --    0.67856   0.69921   0.70512   0.71008   0.71334
 Alpha virt. eigenvalues --    0.71640   0.73423   0.74523   0.74654   0.75494
 Alpha virt. eigenvalues --    0.75997   0.77186   0.77456   0.77902   0.78174
 Alpha virt. eigenvalues --    0.79119   0.80469   0.80863   0.81514   0.83275
 Alpha virt. eigenvalues --    0.85100   0.85210   0.85363   0.86500   0.88680
 Alpha virt. eigenvalues --    0.89478   0.90128   0.90953   0.91934   0.92805
 Alpha virt. eigenvalues --    0.93291   0.95199   0.95728   0.97661   0.98475
 Alpha virt. eigenvalues --    0.99526   1.00727   1.01075   1.02372   1.03114
 Alpha virt. eigenvalues --    1.04000   1.05396   1.06351   1.06693   1.07158
 Alpha virt. eigenvalues --    1.07980   1.09546   1.10463   1.11183   1.12325
 Alpha virt. eigenvalues --    1.13543   1.14794   1.15296   1.16606   1.17072
 Alpha virt. eigenvalues --    1.17803   1.18566   1.19919   1.21085   1.21758
 Alpha virt. eigenvalues --    1.21917   1.23987   1.24446   1.25758   1.26810
 Alpha virt. eigenvalues --    1.27294   1.27506   1.28779   1.30266   1.30676
 Alpha virt. eigenvalues --    1.32474   1.33395   1.34587   1.35599   1.35962
 Alpha virt. eigenvalues --    1.36986   1.38372   1.39307   1.39516   1.40140
 Alpha virt. eigenvalues --    1.41450   1.41831   1.42080   1.43272   1.44055
 Alpha virt. eigenvalues --    1.44158   1.44709   1.44947   1.46919   1.48164
 Alpha virt. eigenvalues --    1.48376   1.50263   1.51858   1.53937   1.54857
 Alpha virt. eigenvalues --    1.56390   1.57826   1.60201   1.61445   1.62482
 Alpha virt. eigenvalues --    1.63727   1.64132   1.65752   1.66175   1.67481
 Alpha virt. eigenvalues --    1.68775   1.71646   1.73312   1.74654   1.76574
 Alpha virt. eigenvalues --    1.77160   1.78066   1.79518   1.80509   1.81633
 Alpha virt. eigenvalues --    1.81879   1.85283   1.85558   1.86626   1.87326
 Alpha virt. eigenvalues --    1.88902   1.90921   1.93277   1.93848   1.94508
 Alpha virt. eigenvalues --    1.95231   1.96588   1.97028   1.97660   1.98901
 Alpha virt. eigenvalues --    1.99953   2.00891   2.02292   2.02864   2.04524
 Alpha virt. eigenvalues --    2.05704   2.06162   2.08022   2.09009   2.09614
 Alpha virt. eigenvalues --    2.10056   2.11397   2.13974   2.14336   2.17543
 Alpha virt. eigenvalues --    2.19435   2.20710   2.21635   2.22321   2.23105
 Alpha virt. eigenvalues --    2.24152   2.25911   2.26647   2.28584   2.29372
 Alpha virt. eigenvalues --    2.30895   2.33876   2.36653   2.37241   2.38920
 Alpha virt. eigenvalues --    2.41168   2.42529   2.42894   2.44704   2.45271
 Alpha virt. eigenvalues --    2.45983   2.47372   2.48182   2.49904   2.50867
 Alpha virt. eigenvalues --    2.51440   2.51966   2.53192   2.53901   2.54785
 Alpha virt. eigenvalues --    2.55832   2.57769   2.58396   2.60299   2.61142
 Alpha virt. eigenvalues --    2.62253   2.64225   2.65281   2.66624   2.67840
 Alpha virt. eigenvalues --    2.68494   2.69110   2.69305   2.70597   2.72676
 Alpha virt. eigenvalues --    2.73491   2.74357   2.75048   2.75374   2.77880
 Alpha virt. eigenvalues --    2.78760   2.80007   2.80325   2.80952   2.84558
 Alpha virt. eigenvalues --    2.86895   2.88411   2.89570   2.92579   2.93046
 Alpha virt. eigenvalues --    2.97771   3.00462   3.00781   3.01779   3.04122
 Alpha virt. eigenvalues --    3.05069   3.06351   3.08079   3.11513   3.14202
 Alpha virt. eigenvalues --    3.16444   3.20404   3.22467   3.25260   3.28284
 Alpha virt. eigenvalues --    3.32221   3.35868   3.37197   3.41222   3.42742
 Alpha virt. eigenvalues --    3.46771   3.47504   3.50778   3.52451   3.53309
 Alpha virt. eigenvalues --    3.56275   3.61438   3.66466   3.72879   4.25474
 Alpha virt. eigenvalues --    4.28029   4.29915   4.31910   4.34998   4.36712
 Alpha virt. eigenvalues --    4.40479   4.43515   4.45377   4.46738   4.49795
 Alpha virt. eigenvalues --    4.52379   4.56962   4.60164   4.63966   4.72049
 Alpha virt. eigenvalues --    4.75710   4.79601   4.88673   4.95759
          Condensed to atoms (all electrons):
              1          2          3          4          5          6
     1  O    8.360942   0.331470  -0.427403  -0.141956   0.001867  -0.010800
     2  C    0.331470  13.051112  -1.426922  -1.968347  -0.089776  -0.131246
     3  C   -0.427403  -1.426922  11.780858   0.925897  -0.405743   0.618281
     4  C   -0.141956  -1.968347   0.925897  10.855820   0.689679  -3.700275
     5  N    0.001867  -0.089776  -0.405743   0.689679   7.534576  -0.946071
     6  C   -0.010800  -0.131246   0.618281  -3.700275  -0.946071  15.280054
     7  C   -0.000742   0.176099   0.062912  -0.256547  -0.203810  -1.309237
     8  O    0.000097  -0.017912  -0.022922   0.089747   0.043741  -0.201233
     9  C   -0.000064  -0.004112  -0.038725   0.354824   0.226171  -0.712371
    10  C   -0.000043   0.000009   0.013330  -0.225638  -0.036127   0.163419
    11  O    0.000000   0.000056  -0.000120   0.000919  -0.000418  -0.010408
    12  O   -0.000002  -0.000399  -0.000827   0.022115   0.002183   0.042730
    13  C   -0.007803   0.266184  -0.092213  -1.271945   0.313836  -2.250013
    14  C   -0.000304  -0.123011   0.040172  -0.060575  -0.013292   0.428444
    15  O    0.000035  -0.092721  -0.117327   0.273900  -0.155615  -0.083201
    16  C    0.040559   0.019217  -0.281276  -0.404806   0.273125  -0.358862
    17  C    0.000742  -2.156165  -2.289897   0.396697   0.091531  -0.407145
    18  Cl  -0.000119  -0.019587  -0.005639   0.007178  -0.001110  -0.001388
    19  C    0.068743  -0.507746  -0.612413  -0.116544  -0.011202  -0.134446
    20  C    0.143350  -0.650363  -2.188947  -0.495038   0.023723   0.038329
    21  H    0.226059  -0.014754   0.124140   0.034664  -0.000226   0.000510
    22  H   -0.000072  -0.002990  -0.031949   0.056109   0.019847   0.175015
    23  H   -0.000001  -0.002694  -0.008908  -0.041830  -0.006609   0.021480
    24  H   -0.000018   0.004988  -0.017845   0.066637   0.038755  -0.151286
    25  H    0.000000  -0.000155   0.000118  -0.006740  -0.001639  -0.042394
    26  H    0.000000   0.000021   0.000201  -0.001479  -0.001238   0.029567
    27  H    0.000000  -0.000001  -0.000006   0.000146   0.000013   0.000961
    28  H   -0.000047   0.004616   0.000463   0.088898   0.010077  -0.081848
    29  H   -0.000158  -0.007752   0.000705   0.018753   0.021258  -0.051331
    30  H    0.000338  -0.006922   0.004902   0.014739  -0.003774   0.055989
    31  H    0.000012   0.003623  -0.001295   0.004168  -0.016012   0.024215
    32  H   -0.000390   0.011492   0.016932   0.046815  -0.003083  -0.022455
    33  H   -0.000450   0.016407   0.002826   0.000123   0.000038   0.000116
    34  H   -0.012332  -0.016282   0.015471   0.000057   0.000007  -0.000288
              7          8          9         10         11         12
     1  O   -0.000742   0.000097  -0.000064  -0.000043   0.000000  -0.000002
     2  C    0.176099  -0.017912  -0.004112   0.000009   0.000056  -0.000399
     3  C    0.062912  -0.022922  -0.038725   0.013330  -0.000120  -0.000827
     4  C   -0.256547   0.089747   0.354824  -0.225638   0.000919   0.022115
     5  N   -0.203810   0.043741   0.226171  -0.036127  -0.000418   0.002183
     6  C   -1.309237  -0.201233  -0.712371   0.163419  -0.010408   0.042730
     7  C    7.437898   0.219763  -0.743705   0.019478   0.048834   0.032381
     8  O    0.219763   8.255402  -0.113923   0.040543  -0.000526   0.000753
     9  C   -0.743705  -0.113923   7.325330  -0.290827  -0.203909  -0.190247
    10  C    0.019478   0.040543  -0.290827   5.104616   0.238172   0.484792
    11  O    0.048834  -0.000526  -0.203909   0.238172   8.282059  -0.131264
    12  O    0.032381   0.000753  -0.190247   0.484792  -0.131264   8.189792
    13  C    0.692598   0.011364  -0.070053   0.084609   0.012575  -0.003140
    14  C   -0.244180   0.021043  -0.051451   0.005640  -0.000711   0.004240
    15  O    0.033980  -0.010212   0.005410  -0.007291   0.000000  -0.000303
    16  C   -0.230468   0.022082   0.039787  -0.004757  -0.000047   0.000991
    17  C   -0.056961   0.005384   0.013704  -0.002930   0.000001   0.000064
    18  Cl   0.000048   0.000011   0.000083   0.000009   0.000000   0.000000
    19  C    0.002572   0.000349   0.001698  -0.000323   0.000000   0.000002
    20  C    0.020892  -0.001709  -0.001238  -0.000016   0.000003  -0.000024
    21  H   -0.000047   0.000000   0.000000   0.000000   0.000000   0.000000
    22  H   -0.044822   0.007556   0.018462  -0.016950   0.000219   0.001743
    23  H    0.388242  -0.060321  -0.082955   0.010917  -0.000396   0.005404
    24  H    0.033096   0.250517   0.022997  -0.007364   0.000012  -0.000029
    25  H    0.038609   0.002613   0.333780  -0.032634   0.000121   0.005880
    26  H   -0.029833   0.000321   0.353519  -0.004504   0.001695   0.001100
    27  H   -0.004963   0.000000   0.033340  -0.014734   0.247966   0.004787
    28  H   -0.024210  -0.000254   0.019726  -0.003668  -0.000005  -0.000705
    29  H   -0.030989  -0.004724   0.016905  -0.000134  -0.000001  -0.000007
    30  H   -0.016198   0.000724   0.005752  -0.000334   0.000003  -0.000012
    31  H    0.054181  -0.004980  -0.041544   0.000878  -0.000045  -0.000075
    32  H    0.001178  -0.000006   0.000138  -0.000072   0.000000   0.000001
    33  H    0.000000   0.000000   0.000000   0.000000   0.000000   0.000000
    34  H   -0.000003   0.000000   0.000000   0.000000   0.000000   0.000000
             13         14         15         16         17         18
     1  O   -0.007803  -0.000304   0.000035   0.040559   0.000742  -0.000119
     2  C    0.266184  -0.123011  -0.092721   0.019217  -2.156165  -0.019587
     3  C   -0.092213   0.040172  -0.117327  -0.281276  -2.289897  -0.005639
     4  C   -1.271945  -0.060575   0.273900  -0.404806   0.396697   0.007178
     5  N    0.313836  -0.013292  -0.155615   0.273125   0.091531  -0.001110
     6  C   -2.250013   0.428444  -0.083201  -0.358862  -0.407145  -0.001388
     7  C    0.692598  -0.244180   0.033980  -0.230468  -0.056961   0.000048
     8  O    0.011364   0.021043  -0.010212   0.022082   0.005384   0.000011
     9  C   -0.070053  -0.051451   0.005410   0.039787   0.013704   0.000083
    10  C    0.084609   0.005640  -0.007291  -0.004757  -0.002930   0.000009
    11  O    0.012575  -0.000711   0.000000  -0.000047   0.000001   0.000000
    12  O   -0.003140   0.004240  -0.000303   0.000991   0.000064   0.000000
    13  C    8.599034  -0.376321  -0.089780  -0.008486  -0.036933   0.000228
    14  C   -0.376321   5.578151  -0.133663   0.093768   0.031215   0.000062
    15  O   -0.089780  -0.133663   8.597960   0.045464   0.006547  -0.000195
    16  C   -0.008486   0.093768   0.045464   9.489579  -0.469812  -0.145780
    17  C   -0.036933   0.031215   0.006547  -0.469812   9.943345  -0.046231
    18  Cl   0.000228   0.000062  -0.000195  -0.145780  -0.046231  17.022531
    19  C    0.025551  -0.000438   0.000633  -0.842817   0.752085  -0.094878
    20  C   -0.043983  -0.008271   0.062922  -1.131240   0.107506   0.062651
    21  H   -0.000201  -0.000127   0.000604  -0.002880   0.000145   0.000063
    22  H    0.054977   0.007497  -0.000931   0.033140   0.005768   0.000009
    23  H    0.038350  -0.005626  -0.002586   0.009505   0.001569   0.000008
    24  H   -0.000749   0.002051   0.001968   0.006180   0.003093   0.000013
    25  H    0.052959  -0.026053  -0.000475  -0.000008  -0.000001   0.000000
    26  H   -0.012061   0.004733   0.000061  -0.000075  -0.000006   0.000000
    27  H   -0.000542  -0.000088  -0.000001   0.000004   0.000000   0.000000
    28  H    0.354358  -0.036945  -0.036949   0.001974  -0.000035   0.000001
    29  H   -0.060376   0.430421   0.002867   0.018299   0.002195   0.000006
    30  H   -0.120907   0.430765   0.000502  -0.000798   0.000033   0.000000
    31  H   -0.051438   0.371814   0.011351  -0.003841  -0.000283   0.000000
    32  H    0.005069   0.000557   0.000208   0.323791  -0.079436   0.000142
    33  H   -0.000015  -0.000008   0.000006   0.033628   0.045580  -0.005120
    34  H    0.000088   0.000013   0.000014  -0.000763   0.010820   0.000797
             19         20         21         22         23         24
     1  O    0.068743   0.143350   0.226059  -0.000072  -0.000001  -0.000018
     2  C   -0.507746  -0.650363  -0.014754  -0.002990  -0.002694   0.004988
     3  C   -0.612413  -2.188947   0.124140  -0.031949  -0.008908  -0.017845
     4  C   -0.116544  -0.495038   0.034664   0.056109  -0.041830   0.066637
     5  N   -0.011202   0.023723  -0.000226   0.019847  -0.006609   0.038755
     6  C   -0.134446   0.038329   0.000510   0.175015   0.021480  -0.151286
     7  C    0.002572   0.020892  -0.000047  -0.044822   0.388242   0.033096
     8  O    0.000349  -0.001709   0.000000   0.007556  -0.060321   0.250517
     9  C    0.001698  -0.001238   0.000000   0.018462  -0.082955   0.022997
    10  C   -0.000323  -0.000016   0.000000  -0.016950   0.010917  -0.007364
    11  O    0.000000   0.000003   0.000000   0.000219  -0.000396   0.000012
    12  O    0.000002  -0.000024   0.000000   0.001743   0.005404  -0.000029
    13  C    0.025551  -0.043983  -0.000201   0.054977   0.038350  -0.000749
    14  C   -0.000438  -0.008271  -0.000127   0.007497  -0.005626   0.002051
    15  O    0.000633   0.062922   0.000604  -0.000931  -0.002586   0.001968
    16  C   -0.842817  -1.131240  -0.002880   0.033140   0.009505   0.006180
    17  C    0.752085   0.107506   0.000145   0.005768   0.001569   0.003093
    18  Cl  -0.094878   0.062651   0.000063   0.000009   0.000008   0.000013
    19  C    6.940867   0.747517  -0.007213   0.000437   0.000017   0.000493
    20  C    0.747517   9.097834  -0.137481  -0.000214  -0.000062   0.000673
    21  H   -0.007213  -0.137481   0.314704   0.000000   0.000000   0.000000
    22  H    0.000437  -0.000214   0.000000   0.523344  -0.004604   0.000223
    23  H    0.000017  -0.000062   0.000000  -0.004604   0.585174  -0.004821
    24  H    0.000493   0.000673   0.000000   0.000223  -0.004821   0.328564
    25  H   -0.000001  -0.000005   0.000000   0.000181   0.004180  -0.000135
    26  H    0.000000   0.000001   0.000000  -0.000097  -0.005561  -0.000044
    27  H    0.000000   0.000000   0.000000   0.000000   0.000005   0.000000
    28  H    0.000163  -0.000144   0.000000  -0.007296  -0.000143   0.000005
    29  H    0.000443  -0.000992   0.000000  -0.000066  -0.000082  -0.000345
    30  H   -0.000135  -0.000837   0.000004  -0.000097   0.000003   0.000004
    31  H    0.000003   0.000220   0.000000  -0.000058  -0.000036   0.000228
    32  H    0.016059   0.005378   0.000002   0.000021  -0.000003  -0.000001
    33  H    0.251270  -0.014575  -0.000010   0.000000   0.000000   0.000000
    34  H   -0.001738   0.327887   0.004969   0.000000   0.000000   0.000000
             25         26         27         28         29         30
     1  O    0.000000   0.000000   0.000000  -0.000047  -0.000158   0.000338
     2  C   -0.000155   0.000021  -0.000001   0.004616  -0.007752  -0.006922
     3  C    0.000118   0.000201  -0.000006   0.000463   0.000705   0.004902
     4  C   -0.006740  -0.001479   0.000146   0.088898   0.018753   0.014739
     5  N   -0.001639  -0.001238   0.000013   0.010077   0.021258  -0.003774
     6  C   -0.042394   0.029567   0.000961  -0.081848  -0.051331   0.055989
     7  C    0.038609  -0.029833  -0.004963  -0.024210  -0.030989  -0.016198
     8  O    0.002613   0.000321   0.000000  -0.000254  -0.004724   0.000724
     9  C    0.333780   0.353519   0.033340   0.019726   0.016905   0.005752
    10  C   -0.032634  -0.004504  -0.014734  -0.003668  -0.000134  -0.000334
    11  O    0.000121   0.001695   0.247966  -0.000005  -0.000001   0.000003
    12  O    0.005880   0.001100   0.004787  -0.000705  -0.000007  -0.000012
    13  C    0.052959  -0.012061  -0.000542   0.354358  -0.060376  -0.120907
    14  C   -0.026053   0.004733  -0.000088  -0.036945   0.430421   0.430765
    15  O   -0.000475   0.000061  -0.000001  -0.036949   0.002867   0.000502
    16  C   -0.000008  -0.000075   0.000004   0.001974   0.018299  -0.000798
    17  C   -0.000001  -0.000006   0.000000  -0.000035   0.002195   0.000033
    18  Cl   0.000000   0.000000   0.000000   0.000001   0.000006   0.000000
    19  C   -0.000001   0.000000   0.000000   0.000163   0.000443  -0.000135
    20  C   -0.000005   0.000001   0.000000  -0.000144  -0.000992  -0.000837
    21  H    0.000000   0.000000   0.000000   0.000000   0.000000   0.000004
    22  H    0.000181  -0.000097   0.000000  -0.007296  -0.000066  -0.000097
    23  H    0.004180  -0.005561   0.000005  -0.000143  -0.000082   0.000003
    24  H   -0.000135  -0.000044   0.000000   0.000005  -0.000345   0.000004
    25  H    0.495522  -0.021884  -0.000096  -0.000849  -0.000194   0.000031
    26  H   -0.021884   0.460744  -0.000188   0.000013   0.000000  -0.000001
    27  H   -0.000096  -0.000188   0.301161   0.000002   0.000000   0.000000
    28  H   -0.000849   0.000013   0.000002   0.523626   0.003909  -0.003387
    29  H   -0.000194   0.000000   0.000000   0.003909   0.509155  -0.028113
    30  H    0.000031  -0.000001   0.000000  -0.003387  -0.028113   0.520210
    31  H    0.002151   0.000068   0.000000  -0.000854  -0.023547  -0.025620
    32  H    0.000000   0.000000   0.000000   0.000000   0.000001   0.000000
    33  H    0.000000   0.000000   0.000000   0.000000   0.000000   0.000000
    34  H    0.000000   0.000000   0.000000   0.000000   0.000000   0.000000
             31         32         33         34
     1  O    0.000012  -0.000390  -0.000450  -0.012332
     2  C    0.003623   0.011492   0.016407  -0.016282
     3  C   -0.001295   0.016932   0.002826   0.015471
     4  C    0.004168   0.046815   0.000123   0.000057
     5  N   -0.016012  -0.003083   0.000038   0.000007
     6  C    0.024215  -0.022455   0.000116  -0.000288
     7  C    0.054181   0.001178   0.000000  -0.000003
     8  O   -0.004980  -0.000006   0.000000   0.000000
     9  C   -0.041544   0.000138   0.000000   0.000000
    10  C    0.000878  -0.000072   0.000000   0.000000
    11  O   -0.000045   0.000000   0.000000   0.000000
    12  O   -0.000075   0.000001   0.000000   0.000000
    13  C   -0.051438   0.005069  -0.000015   0.000088
    14  C    0.371814   0.000557  -0.000008   0.000013
    15  O    0.011351   0.000208   0.000006   0.000014
    16  C   -0.003841   0.323791   0.033628  -0.000763
    17  C   -0.000283  -0.079436   0.045580   0.010820
    18  Cl   0.000000   0.000142  -0.005120   0.000797
    19  C    0.000003   0.016059   0.251270  -0.001738
    20  C    0.000220   0.005378  -0.014575   0.327887
    21  H    0.000000   0.000002  -0.000010   0.004969
    22  H   -0.000058   0.000021   0.000000   0.000000
    23  H   -0.000036  -0.000003   0.000000   0.000000
    24  H    0.000228  -0.000001   0.000000   0.000000
    25  H    0.002151   0.000000   0.000000   0.000000
    26  H    0.000068   0.000000   0.000000   0.000000
    27  H    0.000000   0.000000   0.000000   0.000000
    28  H   -0.000854   0.000000   0.000000   0.000000
    29  H   -0.023547   0.000001   0.000000   0.000000
    30  H   -0.025620   0.000000   0.000000   0.000000
    31  H    0.535648   0.000000   0.000000   0.000000
    32  H    0.000000   0.462671  -0.000128   0.000007
    33  H    0.000000  -0.000128   0.467288  -0.003466
    34  H    0.000000   0.000007  -0.003466   0.476728
 Mulliken atomic charges:
              1
     1  O   -0.571509
     2  C   -0.645437
     3  C    0.363169
     4  C    0.743834
     5  N   -0.394684
     6  C   -0.272814
     7  C   -0.066048
     8  O   -0.533289
     9  C   -0.226502
    10  C    0.481935
    11  O   -0.484783
    12  O   -0.471925
    13  C   -0.014825
    14  C   -0.369521
    15  O   -0.313183
    16  C   -0.564376
    17  C    0.127810
    18  Cl   0.226208
    19  C   -0.479010
    20  C    0.036252
    21  H    0.457075
    22  H    0.205599
    23  H    0.162384
    24  H    0.422140
    25  H    0.197118
    26  H    0.224925
    27  H    0.432233
    28  H    0.189510
    29  H    0.183894
    30  H    0.173139
    31  H    0.161066
    32  H    0.215114
    33  H    0.206488
    34  H    0.198012
 Sum of Mulliken atomic charges =   0.00000
 Mulliken charges with hydrogens summed into heavy atoms:
              1
     1  O   -0.114434
     2  C   -0.645437
     3  C    0.363169
     4  C    0.743834
     5  N   -0.394684
     6  C   -0.067215
     7  C    0.096336
     8  O   -0.111149
     9  C    0.195541
    10  C    0.481935
    11  O   -0.052551
    12  O   -0.471925
    13  C    0.174686
    14  C    0.148578
    15  O   -0.313183
    16  C   -0.349262
    17  C    0.127810
    18  Cl   0.226208
    19  C   -0.272522
    20  C    0.234264
 Sum of Mulliken charges with hydrogens summed into heavy atoms =   0.00000
 Electronic spatial extent (au):  <R**2>=           8460.8464
 Charge=              0.0000 electrons
 Dipole moment (field-independent basis, Debye):
    X=              0.6681    Y=              5.1166    Z=             -0.8510  Tot=              5.2298
 Quadrupole moment (field-independent basis, Debye-Ang):
   XX=            -88.9355   YY=           -118.5547   ZZ=           -132.2874
   XY=             14.1798   XZ=              5.5670   YZ=             -1.7154
 Traceless Quadrupole moment (field-independent basis, Debye-Ang):
   XX=             24.3237   YY=             -5.2955   ZZ=            -19.0282
   XY=             14.1798   XZ=              5.5670   YZ=             -1.7154
 Octapole moment (field-independent basis, Debye-Ang**2):
  XXX=            -86.4677  YYY=             53.5994  ZZZ=            -15.5958  XYY=             30.2285
  XXY=             83.3451  XXZ=            -53.4856  XZZ=            -14.3930  YZZ=              8.2048
  YYZ=              4.6682  XYZ=              3.3533
 Hexadecapole moment (field-independent basis, Debye-Ang**3):
 XXXX=          -7214.3003 YYYY=          -1530.5182 ZZZZ=           -610.5839 XXXY=            495.4145
 XXXZ=            382.1212 YYYX=            189.9867 YYYZ=            -27.8094 ZZZX=             87.1662
 ZZZY=             -2.9082 XXYY=          -1591.8864 XXZZ=          -1525.7816 YYZZ=           -406.3730
 XXYZ=            -40.0924 YYXZ=            -32.1900 ZZXY=            -25.8665
 N-N= 1.661920144337D+03 E-N=-6.597370393455D+03  KE= 1.385257923415D+03
 D1PCM: PCM CHGder 1st derivatives, ID1Alg=3 FixD1E=F DoIter=F DoCFld=F I1PDM=0.
 Calling FoFJK, ICntrl=      2127 FMM=F ISym2X=0 I1Cent= 0 IOpClX= 0 NMat=1 NMatS=1 NMatT=0.
 ***** Axes restored to original set *****
 -------------------------------------------------------------------
 Center     Atomic                   Forces (Hartrees/Bohr)
 Number     Number              X              Y              Z
 -------------------------------------------------------------------
      1        8           0.040833681   -0.029769931    0.013062428
      2        6          -0.014461172    0.008630750   -0.001976801
      3        6          -0.003681035    0.013826588   -0.008390030
      4        6           0.008570440   -0.001174726   -0.008822062
      5        7          -0.007228225   -0.020142580    0.013735783
      6        6           0.027232284   -0.000644378   -0.007394108
      7        6          -0.003244053    0.004301299    0.008128513
      8        8           0.023254600   -0.000671955   -0.021403002
      9        6          -0.006365380    0.006179907    0.007987919
     10        6          -0.005004944    0.002219562    0.011212090
     11        8          -0.041186825   -0.020564523   -0.007974123
     12        8           0.006509054   -0.004890666   -0.028211544
     13        6           0.004098959   -0.021025538   -0.017752963
     14        6           0.002304447   -0.000441218    0.004446329
     15        8          -0.037880335    0.026689599    0.014160729
     16        6          -0.014904175    0.008151081   -0.001364507
     17        6           0.011040841    0.015525734   -0.021508332
     18       17          -0.001342061   -0.005318935    0.006104708
     19        6           0.012969986    0.003712578   -0.009496055
     20        6           0.009597539   -0.020943883    0.017232576
     21        1          -0.026627706    0.012657835   -0.001223190
     22        1           0.004383688    0.000440807    0.003781896
     23        1           0.004812023    0.003744801    0.008123084
     24        1          -0.019792429   -0.003395566    0.006824122
     25        1           0.000259436    0.003272402   -0.004321092
     26        1           0.001042294   -0.004147723   -0.000458961
     27        1           0.024467556    0.016108980    0.021039277
     28        1          -0.002379568    0.003966531    0.002112038
     29        1          -0.000624917   -0.002238747    0.002730738
     30        1          -0.000174799    0.004430838    0.002268025
     31        1           0.004107812   -0.001912308    0.000051058
     32        1           0.005117598   -0.000692300   -0.001059227
     33        1          -0.004076151    0.000355954    0.001596060
     34        1          -0.001628465    0.003759729   -0.003241378
 -------------------------------------------------------------------
 Cartesian Forces:  Max     0.041186825 RMS     0.013178838

 GradGradGradGradGradGradGradGradGradGradGradGradGradGradGradGradGradGrad
 Berny optimization.
 Internal  Forces:  Max     0.036047633 RMS     0.007975333
 Search for a local minimum.
 Step number   1 out of a maximum of  191
 All quantities printed in internal units (Hartrees-Bohrs-Radians)
 Mixed Optimization -- RFO/linear search
 Second derivative matrix not updated -- first step.
 ITU=  0
     Eigenvalues ---    0.00230   0.00230   0.00230   0.00345   0.00732
     Eigenvalues ---    0.00816   0.00869   0.01496   0.01534   0.01667
     Eigenvalues ---    0.01832   0.01906   0.01943   0.01957   0.01967
     Eigenvalues ---    0.02003   0.02006   0.02013   0.02126   0.02244
     Eigenvalues ---    0.02376   0.03506   0.03523   0.03602   0.03698
     Eigenvalues ---    0.04242   0.04576   0.05180   0.05206   0.05461
     Eigenvalues ---    0.05825   0.07991   0.08331   0.08597   0.09677
     Eigenvalues ---    0.13032   0.13485   0.16000   0.16000   0.16000
     Eigenvalues ---    0.16000   0.16000   0.16000   0.16000   0.16000
     Eigenvalues ---    0.16000   0.16721   0.18047   0.19363   0.20270
     Eigenvalues ---    0.21949   0.22370   0.23490   0.23548   0.24600
     Eigenvalues ---    0.24999   0.25000   0.25000   0.25000   0.25000
     Eigenvalues ---    0.25000   0.27094   0.27455   0.27960   0.28297
     Eigenvalues ---    0.29255   0.33044   0.33211   0.34546   0.34586
     Eigenvalues ---    0.34742   0.34792   0.34804   0.34822   0.35168
     Eigenvalues ---    0.35196   0.35945   0.35968   0.35973   0.37560
     Eigenvalues ---    0.39755   0.40252   0.41718   0.42914   0.43257
     Eigenvalues ---    0.43866   0.44209   0.44630   0.48250   0.51525
     Eigenvalues ---    0.53294   0.57119   0.58713   0.58834   0.70949
     Eigenvalues ---    0.92405
 RFO step:  Lambda=-3.20500812D-02 EMin= 2.30000000D-03
 Linear search not attempted -- first point.
 Maximum step size (   0.300) exceeded in Quadratic search.
    -- Step size scaled by   0.983
 Iteration  1 RMS(Cart)=  0.09981054 RMS(Int)=  0.00249048
 Iteration  2 RMS(Cart)=  0.00406165 RMS(Int)=  0.00047934
 Iteration  3 RMS(Cart)=  0.00000875 RMS(Int)=  0.00047932
 Iteration  4 RMS(Cart)=  0.00000001 RMS(Int)=  0.00047932
 Variable       Old X    -DE/DX   Delta X   Delta X   Delta X     New X
                                 (Linear)    (Quad)   (Total)
    R1        2.58357  -0.01749   0.00000  -0.03140  -0.03140   2.55217
    R2        1.78673   0.02846   0.00000   0.04516   0.04516   1.83190
    R3        2.69099  -0.02019   0.00000  -0.04425  -0.04424   2.64674
    R4        2.66681  -0.00999   0.00000  -0.02077  -0.02077   2.64604
    R5        2.81982  -0.01547   0.00000  -0.04175  -0.04175   2.77807
    R6        2.67520  -0.01688   0.00000  -0.03613  -0.03612   2.63908
    R7        2.39983   0.01291   0.00000   0.01802   0.01838   2.41821
    R8        2.58470  -0.00995   0.00000  -0.01731  -0.01700   2.56770
    R9        2.72256   0.01006   0.00000   0.02510   0.02508   2.74763
   R10        2.93346  -0.00957   0.00000  -0.03068  -0.03068   2.90279
   R11        2.91776   0.00560   0.00000   0.01406   0.01357   2.93133
   R12        2.06418   0.00529   0.00000   0.01377   0.01377   2.07795
[...]
 81,-0.00243584,-0.00112053,-0.13963192,-0.17151897,-0.01479476,0.00016
 036,-0.00030515,0.00055078,0.00000726,-0.00000086,-0.00001883,0.000011
 97,0.00001021,-0.00001223,-0.00000712,-0.00001371,0.00003747,-0.000021
 96,0.00000328,-0.00000753,-0.00005756,-0.00003012,0.00010986,0.0000072
 9,-0.00002682,0.00012931,0.00003120,0.00000563,-0.00011708,0.00000782,
 0.00001303,0.00000298,0.00004310,-0.00061632,0.00041482,-0.00010719,0.
 00003384,0.00000247,0.00001092,-0.00001976,0.00002803,-0.00000033,-0.0
 0000372,0.00000134,-0.00005091,0.00126061,-0.00046687,0.15150824,0.183
 97307,-0.00011400,0.00009918,-0.00001392,0.00003058,-0.00000334,-0.000
 07019,0.00004399,0.00001958,-0.00000882,0.00063512,-0.00032848,-0.0010
 6836,0.00011588,0.00051308,-0.00000349,-0.00016603,0.00035055,0.001330
 61,-0.00028527,0.00010817,-0.00066740,0.00023174,0.00043371,0.00008417
 ,0.00015583,0.00000527,0.00003106,-0.00006070,-0.00010443,-0.00008141,
 0.00004983,0.00002277,0.00001686,0.00004103,0.00001673,0.00007117,-0.0
 2641551,-0.02516688,-0.00374801,-0.01557012,-0.01413261,-0.04904136,0.
 00001182,0.00136370,0.00346416,-0.00000410,0.00005579,-0.00000678,-0.0
 0004139,0.00000834,-0.00004579,-0.00000908,-0.00001688,0.00003349,-0.0
 0001713,-0.00000720,0.00003835,-0.00000943,-0.00000514,-0.00000084,0.0
 0001791,-0.00000818,0.00007189,0.00014555,0.00002037,0.00022912,-0.000
 05823,0.00006914,0.00003450,-0.00007265,0.00066845,-0.00016517,-0.0000
 9943,-0.00001489,-0.00003430,0.00001605,-0.00000458,0.00001423,-0.0000
 0277,-0.00000243,-0.00000585,-0.00081939,-0.00045676,-0.00627840,0.020
 13960,0.01666198,0.05413927,0.00018303,0.00002536,-0.00017207,0.000030
 63,-0.00006391,0.00012932,0.00001984,0.00004726,0.00000302,0.00002209,
 -0.00037806,0.00021540,0.00021237,0.00024567,-0.00016753,0.00004843,-0
 .00148182,-0.00086131,-0.00013128,-0.00060253,0.00008869,0.00103338,-0
 .00019671,0.00013305,-0.00028988,-0.00024150,0.00007863,0.00036960,0.0
 0028257,0.00022117,-0.00019560,-0.00009235,-0.00003970,-0.00013364,-0.
 00004340,-0.00021741,-0.00446867,0.00917472,-0.00291596,-0.07419089,0.
 07352847,-0.03084011,0.00064765,-0.00085127,0.00031356,0.00000009,-0.0
 0001660,0.00001692,0.00001577,-0.00001542,0.00002124,0.00000647,0.0000
 1109,-0.00002860,0.00001355,0.00000796,-0.00001987,0.00001585,0.000003
 66,-0.00003197,-0.00001102,0.00002656,-0.00004746,-0.00003217,0.000428
 90,-0.00032887,0.00004297,0.00007955,0.00004286,-0.00014431,0.00034336
 ,-0.00018664,0.00019555,0.00020943,-0.00016161,-0.00003978,0.00003347,
 -0.00002140,0.00002586,0.00001021,0.00002083,0.00002727,0.00021027,0.0
 0025868,0.00862533,-0.02043218,0.00978096,0.07486739,0.00004046,0.0000
 8637,-0.00017726,0.00001520,-0.00011014,0.00019886,-0.00002505,0.00000
 755,0.00001229,0.00002829,-0.00033914,-0.00011711,0.00005997,0.0006479
 6,-0.00003991,0.00039598,0.00071814,-0.00160050,-0.00056397,-0.0002461
 9,-0.00072750,0.00078964,-0.00158301,0.00084339,0.00006755,0.00014461,
 0.00002577,-0.00019696,-0.00010900,-0.00015318,0.00013884,0.00005560,0
 .00003755,0.00008499,0.00002841,0.00011892,-0.00194210,0.00441249,-0.0
 0330334,0.07383206,-0.26110111,0.08889746,-0.00084151,0.00067337,0.000
 28572,-0.00000853,0.00001500,-0.00001261,-0.00001844,0.00001031,-0.000
 00697,-0.00000171,0.00000022,-0.00000125,0.00000347,-0.00001182,0.0000
 2161,0.00002650,0.00001577,-0.00006180,-0.00000416,0.00000963,-0.00001
 966,-0.00007958,0.00000176,-0.00004711,0.00007238,0.00003832,0.0001202
 6,0.00016307,0.00039636,-0.00016736,-0.00007122,-0.00008864,0.00004200
 ,-0.00000923,-0.00000766,0.00000718,-0.00001272,-0.00000329,-0.0000145
 1,-0.00009181,0.00084349,0.00056291,0.00787127,-0.01646363,0.00712638,
 -0.08090156,0.27951249,-0.00008602,-0.00009081,0.00016008,0.00004380,0
 .00009539,-0.00023890,0.00000716,-0.00009547,0.00002058,-0.00000173,0.
 00158477,-0.00005523,0.00057157,-0.00017989,-0.00023565,-0.00149944,-0
 .00429157,-0.00415012,0.00007465,-0.00062127,-0.00066195,0.00017234,-0
 .00061234,0.00089595,0.00023915,0.00021379,0.00001053,0.00008388,-0.00
 006689,-0.00015368,-0.00005365,-0.00002923,0.00003108,-0.00012402,0.00
 005372,0.00012909,-0.01048886,0.03119945,-0.01619116,-0.02919921,0.086
 84191,-0.08167180,-0.00100416,-0.00108083,0.00323258,0.00001261,-0.000
 01936,-0.00000203,0.00002883,-0.00000271,0.00003032,0.00000251,0.00000
 241,-0.00000626,0.00000632,0.00001249,-0.00003163,-0.00002296,-0.00001
 908,0.00005716,0.00000477,-0.00001036,0.00002731,-0.00007375,0.0013534
 0,-0.00102234,-0.00003151,0.00017129,0.00014863,0.00002060,-0.00005393
 ,-0.00000828,-0.00009280,-0.00014010,0.00002333,-0.00005806,-0.0000179
 0,0.00003017,0.00000924,0.00000185,0.00000405,0.00025386,-0.00028320,0
 .00140426,0.00168043,-0.00278497,0.00022347,0.03549417,-0.09497002,0.0
 9053597,-0.00016118,0.00001155,0.00019631,0.00001678,0.00009738,-0.000
 23338,0.00007689,0.00006684,0.00000804,0.00038928,-0.00029916,-0.00054
 003,-0.00016754,0.00011349,0.00016988,0.00017800,0.00024175,0.00049133
 ,0.00040531,0.00001214,0.00066501,-0.00007227,0.00124080,-0.00087266,-
 0.00106034,0.00037503,-0.00053330,-0.00001785,0.00015346,0.00005023,-0
 .00001155,-0.00002654,-0.00000053,0.00000454,-0.00003662,-0.00005891,0
 .00673128,-0.00335094,-0.00367665,-0.21653679,0.06999097,0.11641165,0.
 00185414,-0.00034210,-0.00251857,0.00000176,0.00001721,0.00000541,0.00
 000431,-0.00001240,-0.00001874,-0.00000481,-0.00000896,0.00002099,-0.0
 0001121,0.00000705,-0.00000563,-0.00003255,-0.00001972,0.00005595,0.00
 000561,-0.00001695,0.00006263,-0.00001181,-0.00019124,0.00009565,-0.00
 009010,-0.00008230,-0.00009331,-0.00015327,0.00007911,-0.00000537,-0.0
 0169014,0.00102184,-0.00125953,0.00001115,0.00003860,0.00005279,0.0000
 0167,0.00000163,0.00000287,-0.00005521,-0.00006256,0.00095801,-0.01680
 312,0.00884563,0.01233448,-0.00676556,0.00118267,0.00402991,0.23395984
 ,-0.00003951,0.00006657,0.00002943,0.00000483,0.00001568,-0.00003812,0
 .00006072,0.00001461,-0.00007132,-0.00014301,-0.00075718,-0.00007092,-
 0.00014126,0.00052865,0.00012256,-0.00017619,0.00010551,-0.00017479,0.
 00036876,0.00011392,0.00064767,-0.00033670,-0.00016141,-0.00030680,0.0
 0054135,-0.00024746,0.00008496,0.00019105,0.00002957,0.00010771,-0.000
 13973,-0.00005640,-0.00003332,-0.00009165,-0.00000743,-0.00009257,0.00
 240510,-0.00327037,0.00022349,0.07140782,-0.07361075,-0.04979187,0.000
 39057,0.00152183,-0.00103171,0.00000212,-0.00000645,0.00001700,0.00001
 095,-0.00001076,0.00000399,0.00000212,0.00000205,-0.00000608,-0.000000
 18,0.00000283,-0.00000715,-0.00000179,-0.00000356,0.00000360,-0.000001
 15,0.00000886,0.00001251,0.00000852,-0.00004404,-0.00004801,-0.0000307
 9,0.00003020,-0.00009895,-0.00011722,-0.00011443,-0.00003775,0.0007136
 0,0.00011075,0.00047356,0.00002720,-0.00007565,0.00001976,0.00000736,0
 .00000216,0.00001251,-0.00023280,0.00005103,0.00018671,-0.01628841,0.0
 0688419,0.01270299,0.02064643,-0.00755715,-0.01614651,-0.07905161,0.07
 643034,-0.00001890,-0.00006991,0.00023933,-0.00003540,0.00013356,-0.00
 024478,0.00023736,0.00036093,-0.00002471,-0.00097383,-0.00413738,0.001
 11686,-0.00066803,0.00120131,0.00038800,0.00050166,0.00013792,0.000494
 62,0.00000017,0.00053344,-0.00111598,-0.00036580,-0.00040969,0.0004522
 0,0.00041647,0.00061104,-0.00003094,-0.00069759,-0.00059379,-0.0006606
 2,0.00039220,0.00016406,0.00013164,0.00019102,0.00014715,0.00057146,0.
 02548467,-0.00742048,-0.00905748,0.11498891,-0.04811020,-0.12846277,0.
 00228939,-0.00007623,-0.01020930,0.00001136,-0.00005117,0.00011046,0.0
 0009451,-0.00007874,0.00003591,0.00001485,0.00001884,-0.00004934,0.000
 00439,0.00004136,-0.00008783,-0.00003832,-0.00003716,0.00007201,-0.000
 00703,0.00002324,-0.00001490,-0.00025651,-0.00013665,0.00012193,-0.000
 12776,-0.00001271,0.00013868,0.00020228,-0.00009458,0.00000248,-0.0014
 2785,0.00004828,0.00014167,0.00002067,-0.00010962,0.00009140,-0.000046
 05,-0.00001642,-0.00004476,-0.00061261,-0.00016311,0.00095928,-0.00301
 154,0.00165102,0.00146249,-0.01077757,0.00312632,0.00744989,-0.1257997
 8,0.05330312,0.13600800,0.00056797,-0.00026167,0.00040738,0.00078411,0
 .00050364,0.00233616,0.00749721,-0.00252291,0.00366018,0.00018889,-0.0
 0125716,0.00032139,-0.00022885,-0.00030559,0.00042778,0.00002476,-0.00
 006634,-0.00004303,0.00002541,0.00002679,-0.00000147,-0.00001039,-0.00
 000576,-0.00001045,0.00000080,-0.00001165,-0.00000616,-0.00001333,-0.0
 0000538,0.00001309,0.00001180,0.00000482,-0.00000445,0.00000649,0.0000
 0041,-0.00001080,0.00004535,-0.00006730,0.00008476,-0.00002141,0.00000
 809,0.00000498,-0.00001513,0.00019513,0.00012290,-0.22107428,0.0980031
 5,-0.10777716,-0.01447242,0.01162973,-0.01399357,0.00068944,-0.0002881
 1,-0.00123994,-0.00352545,0.00084342,0.00342851,0.00006200,-0.00071725
 ,0.00093287,-0.00003083,-0.00005979,0.00010683,-0.00000853,-0.00000335
 ,-0.00000779,-0.00000315,0.00000082,0.00000181,0.00000831,0.00000448,0
 .00000129,-0.00000005,0.00000045,0.00000015,0.00000416,0.00000044,-0.0
 0000130,-0.00000233,0.00000001,-0.00000036,-0.00000551,-0.00001005,0.0
 0001197,0.00000338,0.00000024,-0.00000292,0.00000029,0.00000084,-0.000
 00536,0.00000156,0.00000175,0.00000450,0.23008953,0.00068617,-0.000260
 71,0.00038584,0.00016193,0.00481376,0.00355047,0.00784366,-0.00049455,
 0.00588794,0.00112430,-0.00430258,-0.00205668,0.00013377,0.00078567,-0
 .00082089,-0.00015209,-0.00007349,0.00014985,-0.00000271,0.00007127,-0
 .00000607,-0.00000248,-0.00003933,-0.00001676,0.00000122,-0.00001835,-
 0.00000319,-0.00002311,-0.00000546,0.00000462,0.00001382,0.00000523,-0
 .00000097,0.00001931,-0.00000820,-0.00000097,0.00017539,-0.00012976,0.
 00005818,-0.00004542,0.00002471,0.00001604,-0.00062523,0.00008123,0.00
 041679,0.09810596,-0.09626810,0.06956817,-0.00008939,0.00347163,0.0010
 3564,-0.00095254,-0.00192731,-0.00118221,0.00058292,0.00470944,0.00155
 360,-0.00071773,-0.00069673,-0.00019141,-0.00012081,-0.00013197,0.0000
 5346,0.00006348,0.00001345,-0.00002136,0.00000060,0.00000343,0.0000029
 7,0.00000992,0.00003618,0.00000913,0.00000034,0.00000089,0.00000071,0.
 00000788,0.00000176,-0.00000338,-0.00000259,0.00000142,-0.00000076,-0.
 00002760,0.00003315,0.00000282,0.00000460,-0.00000274,0.00000672,-0.00
 000007,0.00000099,-0.00001147,0.00000608,0.00000437,0.00001368,-0.1060
 6207,0.09050720,-0.00143514,0.00069550,-0.00071874,0.00335796,0.003271
 57,-0.00203393,-0.02046252,0.01179653,-0.00882991,-0.00114064,-0.00037
 818,-0.00107360,-0.00023242,-0.00007445,0.00044666,0.00050910,-0.00012
 455,0.00032958,-0.00000910,-0.00012688,-0.00002793,-0.00000837,0.00006
 021,0.00004346,-0.00000287,0.00004514,0.00000849,0.00006880,0.00002117
 ,0.00002751,-0.00004318,-0.00001754,-0.00000783,-0.00003803,-0.0000013
 5,-0.00001763,-0.00003153,-0.00012708,-0.00004327,-0.00003258,-0.00001
 677,0.00000664,-0.00055375,-0.00053732,0.00042616,-0.10755873,0.069560
 00,-0.12408005,0.01110632,-0.00519482,0.00890437,0.00012787,-0.0015936
 8,0.00047821,0.00343695,0.00178514,0.00003381,0.00033157,-0.00027581,-
 0.00058198,0.00015047,0.00000844,-0.00027159,0.00000608,-0.00000975,-0
 .00002307,0.00000313,0.00001108,0.00000353,-0.00001378,-0.00005906,-0.
 00003798,0.00000412,-0.00000241,-0.00000442,-0.00002246,-0.00000146,0.
 00000610,0.00000545,0.00000088,0.00000531,-0.00000534,-0.00003441,0.00
 004947,-0.00000128,0.00000518,-0.00000963,0.00000405,-0.00000531,0.000
 01298,0.00000079,0.00000448,0.00001804,0.11211401,-0.07815171,0.126407
 04,-0.00002974,-0.00015041,0.00010527,0.00207981,0.00142618,0.00024162
 ,0.00060781,0.00001549,-0.00075641,-0.00022172,-0.00015151,0.00000528,
 0.00006167,-0.00001802,-0.00003178,0.00001968,-0.00000629,0.00006496,-
 0.00000340,0.00000930,0.00000267,0.00000014,-0.00000669,-0.00000408,0.
 ,-0.00000231,-0.00000064,-0.00000564,-0.00000166,0.00000062,0.00000355
 ,0.00000149,0.,0.00000417,-0.00000064,-0.00000003,-0.00001791,-0.00000
 837,0.00000749,0.00000196,-0.00000024,-0.00000004,0.00001900,-0.000006
 63,-0.00000863,-0.00154601,0.00306201,-0.00242902,-0.01498084,-0.00025
 817,0.01080949,0.00085502,-0.00105108,0.00034298,-0.29884089,0.0167451
 6,0.10786576,0.00126178,0.00088626,0.00001413,-0.00004313,0.00002845,-
 0.00002238,0.00001710,0.00000573,-0.00001341,0.00000029,-0.00000024,-0
 .00000021,0.00000132,0.00000612,0.00000238,-0.00000026,0.00000025,0.00
 000031,0.00000122,0.00000008,-0.00000040,-0.00000063,0.00000001,-0.000
 00032,0.00000023,-0.00000019,-0.00000099,-0.00000053,-0.00000073,0.000
 00132,-0.00000025,0.00000093,-0.00000135,-0.00000045,0.00000009,-0.000
 00163,-0.00058781,-0.00009698,0.00048798,0.31107582,-0.00074384,-0.000
 36902,0.00034551,0.00150341,0.00524155,0.00488874,-0.00044669,-0.00094
 505,0.00019517,0.00013435,-0.00063939,-0.00039200,-0.00000689,0.000142
 98,-0.00008810,-0.00000314,-0.00000798,0.00001462,0.00000339,0.0000038
 9,0.00000269,-0.00000410,-0.00000137,-0.00000112,-0.00000037,-0.000000
 21,-0.00000142,0.00000118,0.00000111,0.00000241,-0.00000064,-0.0000007
 0,-0.00000079,0.00000047,-0.00000095,-0.00000167,0.00002260,-0.0000079
 9,0.00001801,-0.00001392,0.00000825,0.00000903,-0.00005553,0.00002261,
 0.00006356,0.00312310,0.00310483,0.00361861,0.01200658,0.00310541,-0.0
 0524486,-0.00042072,-0.00160335,-0.00159262,0.01593576,-0.04329458,0.0
 0149976,-0.01120174,0.00507432,0.00494069,-0.00005616,0.00008449,-0.00
 013448,0.00000550,0.00000080,0.00000231,-0.00000118,0.00000099,0.00000
 016,0.00000252,0.00000070,-0.00000065,0.00000043,0.00000026,0.00000008
 ,0.00000015,0.00000008,-0.00000021,-0.00000011,0.00000045,0.00000025,-
 0.00000218,0.00000161,0.00000012,-0.00000050,-0.00000383,-0.00000067,0
 .00000118,0.00000166,-0.00000245,-0.00000178,0.00000018,0.00000297,0.0
 0045598,0.00009008,-0.00038243,-0.01936949,0.03330637,0.00128184,-0.00
 011840,-0.00093820,0.00021801,0.00479752,-0.00247208,-0.00053382,0.000
 13698,-0.00092849,0.00006552,-0.00025126,-0.00015148,0.00001545,0.0000
 3961,0.00001989,0.00001833,-0.00002288,-0.00000107,0.00000340,0.000002
 88,0.00000090,-0.00000086,-0.00000275,0.00000050,0.00000031,-0.0000002
 9,-0.00000078,0.00000017,-0.00000002,-0.00000024,-0.00000026,-0.000000
 25,-0.00000002,0.00000033,-0.00000020,0.00000017,-0.00001123,-0.000013
 05,0.00001392,-0.00000081,-0.00000410,0.00000111,-0.00002451,-0.000031
 72,0.00006911,-0.00230185,0.00353427,-0.00037396,-0.01474901,0.0015662
 8,0.00866285,-0.00095170,-0.00127575,0.00067321,0.10948660,0.00106129,
 -0.10082536,0.02506114,-0.00147522,-0.00593036,0.00012969,-0.00012715,
 0.00026779,0.00000098,-0.00000090,0.00000135,0.00000010,-0.00000032,-0
 .00000007,0.00000122,0.00000065,-0.00000145,-0.00000040,-0.00000002,0.
 00000028,0.00000031,-0.00000008,0.,0.00000003,0.00000020,0.00000013,-0
 .00000003,-0.00000034,0.00000203,-0.00000184,0.00000609,0.00000158,-0.
 00000325,-0.00000241,0.00000186,0.00000350,0.00000062,0.00000200,-0.00
 074312,-0.00010137,0.00055682,-0.11624185,-0.00564468,0.10108681,0.001
 97314,-0.00051816,-0.00217789,-0.01586774,0.01226814,-0.01547772,-0.00
 365882,0.00059392,0.00323885,0.00009350,0.00057750,-0.00122970,-0.0005
 8204,0.00006594,0.00016751,0.00002998,0.00012271,0.00007382,-0.0000335
 4,-0.00008389,-0.00000277,0.00000374,0.00003007,0.00001920,-0.00000418
 ,0.00003171,0.00000799,0.00003284,0.00001023,0.00001027,-0.00001993,-0
 .00000889,-0.00000266,-0.00001805,-0.00000005,-0.00000658,0.00000622,-
 0.00000307,-0.00002926,-0.00001680,-0.00000509,0.00000339,-0.00008963,
 -0.00001739,0.00014206,-0.00031160,-0.00078814,0.00126570,0.00177165,0
 .00036795,0.00202161,0.00017975,-0.00029138,0.00058329,0.00868305,-0.0
 0346281,0.00442117,-0.21776737,0.09562737,-0.10552829,-0.00066526,-0.0
 0058345,0.00193279,-0.00001385,-0.00000885,0.00000968,-0.00000057,0.00
 000470,0.00000071,-0.00000804,-0.00002823,-0.00001406,0.00000227,-0.00
 000151,-0.00000190,-0.00001342,-0.00000178,0.00000390,0.00000227,0.000
 00057,0.00000194,-0.00000719,-0.00000592,0.00001528,-0.00000202,0.0000
 0674,-0.00000355,-0.00000038,-0.00000555,0.00000708,0.00000363,0.00000
 162,0.00001179,-0.00001200,-0.00002050,-0.00012289,0.00026860,-0.00086
 763,-0.00072242,0.22604179,-0.00125764,-0.00235525,-0.00187003,-0.0006
 5390,0.00365207,0.00220378,0.00087081,0.00406223,0.00162650,-0.0001017
 8,-0.00006429,0.00002628,-0.00005688,-0.00001382,-0.00008222,-0.000010
 99,-0.00001828,0.00006180,0.00000219,-0.00000233,0.00000572,-0.0000032
 8,-0.00000316,-0.00000283,-0.00000146,0.00000041,-0.00000081,0.0000011
 5,0.00000116,0.00000220,-0.00000088,-0.00000117,-0.00000060,-0.0000002
 2,-0.00000130,-0.00000120,-0.00000994,-0.00000064,0.00000418,0.0000016
 5,0.00000223,-0.00000014,-0.00002960,0.00002662,-0.00002808,-0.0001393
 9,-0.00060946,-0.00065350,-0.00013800,0.00549340,0.00363703,0.00026923
 ,-0.00010693,0.00050856,0.00890041,-0.00177837,0.00553246,0.09597028,-
 0.09028669,0.06848019,0.00046880,0.00012126,-0.00037046,0.00001272,0.0
 0000403,-0.00000585,-0.00000005,0.00000002,-0.00000041,0.00000413,0.00
 000363,0.00000305,0.00000024,0.00000033,0.00000008,-0.00000009,0.00000
 030,-0.00000011,0.,0.00000061,0.00000020,0.00000196,-0.00000210,-0.000
 00068,0.00000013,-0.00000112,-0.00000043,0.00000128,0.00000027,-0.0000
 0011,-0.00000033,-0.00000025,-0.00000040,-0.00003581,-0.00029658,-0.00
 015035,-0.00105789,-0.00331818,-0.00207323,-0.10300687,0.08549135,-0.0
 0009799,-0.00240266,0.00185103,0.01076083,-0.00440972,0.00831261,0.003
 03478,0.00148044,0.00021163,0.00032135,-0.00029171,0.00061969,0.000216
 47,-0.00004501,-0.00010868,-0.00001484,-0.00008979,-0.00004889,0.00002
 162,0.00003579,0.00000458,-0.00000206,-0.00001497,-0.00000785,0.000002
 27,-0.00001415,-0.00000405,-0.00001426,-0.00000409,-0.00000503,0.00000
 864,0.00000307,0.00000143,0.00000692,-0.00000034,0.00000336,-0.0000310
 5,0.00000185,0.00002071,0.00000971,-0.00000110,0.00000018,-0.00000805,
 -0.00004507,-0.00000244,0.00076159,-0.00017087,-0.00089126,0.00215897,
 0.00351938,-0.00159908,-0.00052086,0.00085780,-0.00123180,-0.02177710,
 0.01146054,-0.00969140,-0.10510762,0.06897983,-0.12570697,-0.00055447,
 0.00024589,-0.00026077,0.00000298,0.00000357,-0.00000004,0.00000107,-0
 .00000316,-0.00000085,0.00000514,0.00001357,0.00000647,-0.00000119,0.0
 0000074,0.00000109,0.00000619,0.00000091,-0.00000186,-0.00000104,0.000
 00016,-0.00000084,0.00000334,0.00000218,-0.00000535,-0.00000091,0.0000
 0101,0.00000332,-0.00000121,0.00000120,-0.00000026,0.00000094,-0.00000
 077,-0.00000495,-0.00013270,-0.00014741,-0.00000261,-0.00043910,-0.002
 11653,0.00026126,0.11138168,-0.07685058,0.12827763\\-0.00000613,0.0000
 0720,0.00000243,0.00000805,-0.00001812,0.00000297,-0.00000325,0.000000
 17,-0.00000301,-0.00001097,0.00000915,-0.00000729,0.00000136,-0.000005
 79,0.00000358,-0.00000554,0.00000331,-0.00000247,0.00000277,-0.0000050
 1,-0.00000750,0.00000377,0.00000273,0.00000942,-0.00000753,0.00000440,
 -0.00001299,0.00000398,0.00000581,0.00000621,-0.00000641,0.00000131,0.
 00000444,0.00000748,0.00000520,-0.00001368,0.00000790,-0.00000630,0.00
 000095,-0.00000231,0.00000867,-0.00000313,-0.00000218,-0.00000066,0.00
 000250,-0.00000509,0.00000437,0.00000695,0.00001480,-0.00000738,0.0000
 0557,0.00000445,0.00000254,0.00000148,-0.00000016,0.00000309,-0.000006
 95,-0.00000443,-0.00000161,0.00001319,0.00000097,-0.00000895,0.0000038
 6,0.00000054,0.00000284,0.00000003,0.00000413,0.00000334,-0.00000232,-
 0.00000170,-0.00000032,0.00000069,0.00000098,-0.00000094,-0.00000147,0
 .00000333,0.00000014,0.00000055,0.00000103,0.00000488,-0.00000909,-0.0
 0000261,0.00000257,-0.00000431,-0.00000174,-0.00000532,0.00000087,-0.0
 0000435,-0.00000278,-0.00000166,-0.00000450,-0.00000242,-0.00000334,0.
 00000313,0.00000006,0.00000284,0.00000164,-0.00000264,0.00000640,-0.00
 000141,-0.00000355,0.00000430\\\@


 Life may have no meaning.  Or even worse, it may have a
 meaning of which I disapprove.
                                 -- Ashleigh Brilliant
 Job cpu time:  0 days  7 hours 52 minutes 26.5 seconds.
 File lengths (MBytes):  RWF=    864 Int=      0 D2E=      0 Chk=     20 Scr=      1
 Normal termination of Gaussian 09 at Fri Mar 22 23:13:15 2019.
