 Entering Gaussian System, Link 0=g09
 Initial command:
 /home/yuheng/proj/yuheng/g09/l1.exe /home/yuheng/proj/yuheng/g09_scratch/Gau-53530.inp -scrdir=/home/yuheng/proj/yuheng/g09_scratch/
 Entering Link 1 = /home/yuheng/proj/yuheng/g09/l1.exe PID=     53531.
  
 Copyright (c) 1988,1990,1992,1993,1995,1998,2003,2009,2010,
            Gaussian, Inc.  All Rights Reserved.
  
 This is part of the Gaussian(R) 09 program.  It is based on
 the Gaussian(R) 03 system (copyright 2003, Gaussian, Inc.),
 the Gaussian(R) 98 system (copyright 1998, Gaussian, Inc.),
 the Gaussian(R) 94 system (copyright 1995, Gaussian, Inc.),
 the Gaussian 92(TM) system (copyright 1992, Gaussian, Inc.),
 the Gaussian 90(TM) system (copyright 1990, Gaussian, Inc.),
 the Gaussian 88(TM) system (copyright 1988, Gaussian, Inc.),
 the Gaussian 86(TM) system (copyright 1986, Carnegie Mellon
 University), and the Gaussian 82(TM) system (copyright 1983,
 Carnegie Mellon University). Gaussian is a federally registered
 trademark of Gaussian, Inc.
  
 This software contains proprietary and confidential information,
 including trade secrets, belonging to Gaussian, Inc.
  
 This software is provided under written license and may be
 used, copied, transmitted, or stored only in accord with that
 written license.
  
 The following legend is applicable only to US Government
 contracts under FAR:
  
                    RESTRICTED RIGHTS LEGEND
  
 Use, reproduction and disclosure by the US Government is
 subject to restrictions as set forth in subparagraphs (a)
 and (c) of the Commercial Computer Software - Restricted
 Rights clause in FAR 52.227-19.
  
 Gaussian, Inc.
 340 Quinnipiac St., Bldg. 40, Wallingford CT 06492
  
  
 ---------------------------------------------------------------
 Warning -- This program may not be used in any manner that
 competes with the business of Gaussian, Inc. or will provide
 assistance to any competitor of Gaussian, Inc.  The licensee
 of this program is prohibited from giving any competitor of
 Gaussian, Inc. access to this program.  By using this program,
 the user acknowledges that Gaussian, Inc. is engaged in the
 business of creating and licensing software in the field of
 computational chemistry and represents and warrants to the
 licensee that it is not a competitor of Gaussian, Inc. and that
 it will not use this program in any manner prohibited above.
 ---------------------------------------------------------------
  

 Cite this work as:
 Gaussian 09, Revision B.01,
 M. J. Frisch, G. W. Trucks, H. B. Schlegel, G. E. Scuseria, 
 M. A. Robb, J. R. Cheeseman, G. Scalmani, V. Barone, B. Mennucci, 
 G. A. Petersson, H. Nakatsuji, M. Caricato, X. Li, H. P. Hratchian, 
 A. F. Izmaylov, J. Bloino, G. Zheng, J. L. Sonnenberg, M. Hada, 
 M. Ehara, K. Toyota, R. Fukuda, J. Hasegawa, M. Ishida, T. Nakajima, 
 Y. Honda, O. Kitao, H. Nakai, T. Vreven, J. A. Montgomery, Jr., 
 J. E. Peralta, F. Ogliaro, M. Bearpark, J. J. Heyd, E. Brothers, 
 K. N. Kudin, V. N. Staroverov, T. Keith, R. Kobayashi, J. Normand, 
 K. Raghavachari, A. Rendell, J. C. Burant, S. S. Iyengar, J. Tomasi, 
 M. Cossi, N. Rega, J. M. Millam, M. Klene, J. E. Knox, J. B. Cross, 
 V. Bakken, C. Adamo, J. Jaramillo, R. Gomperts, R. E. Stratmann, 
 O. Yazyev, A. J. Austin, R. Cammi, C. Pomelli, J. W. Ochterski, 
 R. L. Martin, K. Morokuma, V. G. Zakrzewski, G. A. Voth, 
 P. Salvador, J. J. Dannenberg, S. Dapprich, A. D. Daniels, 
 O. Farkas, J. B. Foresman, J. V. Ortiz, J. Cioslowski, 
 and D. J. Fox, Gaussian, Inc., Wallingford CT, 2010.
 
 ******************************************
 Gaussian 09:  EM64L-G09RevB.01 12-Aug-2010
                22-Mar-2019 
 ******************************************
 %mem=16gb
 %nprocshared=20
 Will use up to   20 processors via shared memory.
 %chk=1b-conf-2.chk
 ----------------------------------------------------------------------
 # m062x/6-31+G(d,p) opt freq=noraman integral(ultrafinegrid) scrf=(ief
 pcm,read,solvent=methanol)
 ----------------------------------------------------------------------
 1/14=-1,18=20,19=15,26=3,38=1,40=2/1,3;
 2/9=110,12=2,17=6,18=5,40=1/2;
 3/5=1,6=6,7=111,11=2,16=1,25=1,30=1,70=2203,71=1,72=3,74=-55,75=-5/1,2,3;
 4//1;
 5/5=2,38=5,53=3/2;
 6/7=2,8=2,9=2,10=2,28=1/1;
 7//1,2,3,16;
 1/14=-1,18=20,19=15/3(2);
 2/9=110/2;
 99//99;
 2/9=110/2;
 3/5=1,6=6,7=111,11=2,16=1,25=1,30=1,70=2205,71=1,72=3,74=-55,75=-5/1,2,3;
 4/5=5,16=3/1;
 5/5=2,38=5,53=3/2;
 7//1,2,3,16;
 1/14=-1,18=20,19=15/3(-5);
 2/9=110/2;
 6/7=2,8=2,9=2,10=2,19=2,28=1/1;
 99/9=1/99;
 ----------------------------------------------------------------------
 Candidate Structure: 1b, Conformer: 2 geometry optimization and freque
 ncy calculation with methanol solvation
 ----------------------------------------------------------------------
 Symbolic Z-matrix:
 Charge =  0 Multiplicity = 1
 O                    -0.9714    4.59976   0.72759 
 C                    -1.74835   3.64017   0.13929 
 C                    -1.23072   2.68553  -0.78055 
 C                     0.20552   2.66202  -1.17322 
 N                     0.69455   1.84602  -2.01051 
 C                     2.12112   2.04748  -2.03788 
 C                     2.69165   1.70529  -3.44068 
 O                     1.89002   2.35159  -4.41096 
 C                     4.19406   1.98255  -3.68128 
 C                     5.14249   1.17966  -2.78545 
 O                     6.4336    1.56695  -2.95238 
 O                     4.786     0.29396  -2.01506 
 C                     2.31128   3.45621  -1.43234 
 C                     2.31039   4.67197  -2.38147 
 O                     1.12025   3.54873  -0.67185 
 C                    -2.10797   1.72699  -1.34103 
 C                    -3.472     1.71468  -0.99773 
 Cl                   -4.52521   0.53802  -1.69182 
 C                    -3.97736   2.66113  -0.08887 
 C                    -3.1165    3.61978   0.47664 
 H                    -0.06134   4.55286   0.4586 
 H                     2.55768   1.33979  -1.3295 
 H                     2.53137   0.63636  -3.5961 
 H                     0.99998   2.2514   -4.08844 
 H                     4.42742   3.03789  -3.56881 
 H                     4.43745   1.73106  -4.7138 
 H                     6.99551   1.04773  -2.39761 
 H                     3.18538   3.48678  -0.78062 
 H                     1.44518   4.66446  -3.04473 
 H                     2.27663   5.60095  -1.81247 
 H                     3.20046   4.71506  -3.00407 
 H                    -1.73987   0.99007  -2.04013 
 H                    -5.0248    2.65144   0.17464 
 H                    -3.50896   4.34504   1.17482 
 

 GradGradGradGradGradGradGradGradGradGradGradGradGradGradGradGradGradGrad
 Berny optimization.
 Initialization pass.
                           ----------------------------
                           !    Initial Parameters    !
                           ! (Angstroms and Degrees)  !
 --------------------------                            --------------------------
 ! Name  Definition              Value          Derivative Info.                !
 --------------------------------------------------------------------------------
 ! R1    R(1,2)                  1.3677         estimate D2E/DX2                !
 ! R2    R(1,21)                 0.9501         estimate D2E/DX2                !
 ! R3    R(2,3)                  1.4232         estimate D2E/DX2                !
 ! R4    R(2,20)                 1.4093         estimate D2E/DX2                !
 ! R5    R(3,4)                  1.4891         estimate D2E/DX2                !
 ! R6    R(3,16)                 1.4151         estimate D2E/DX2                !
 ! R7    R(4,5)                  1.2673         estimate D2E/DX2                !
 ! R8    R(4,15)                 1.3691         estimate D2E/DX2                !
 ! R9    R(5,6)                  1.441          estimate D2E/DX2                !
 ! R10   R(6,7)                  1.5526         estimate D2E/DX2                !
 ! R11   R(6,13)                 1.5451         estimate D2E/DX2                !
 ! R12   R(6,22)                 1.0923         estimate D2E/DX2                !
 ! R13   R(7,8)                  1.4148         estimate D2E/DX2                !
 ! R14   R(7,9)                  1.5466         estimate D2E/DX2                !
 ! R15   R(7,23)                 1.092          estimate D2E/DX2                !
 ! R16   R(8,24)                 0.952          estimate D2E/DX2                !
 ! R17   R(9,10)                 1.5319         estimate D2E/DX2                !
 ! R18   R(9,25)                 1.0867         estimate D2E/DX2                !
 ! R19   R(9,26)                 1.0902         estimate D2E/DX2                !
 ! R20   R(10,11)                1.3582         estimate D2E/DX2                !
 ! R21   R(10,12)                1.2268         estimate D2E/DX2                !
 ! R22   R(11,27)                0.945          estimate D2E/DX2                !
 ! R23   R(13,14)                1.5424         estimate D2E/DX2                !
 ! R24   R(13,15)                1.4161         estimate D2E/DX2                !
 ! R25   R(13,28)                1.0907         estimate D2E/DX2                !
 ! R26   R(14,29)                1.0902         estimate D2E/DX2                !
 ! R27   R(14,30)                1.0899         estimate D2E/DX2                !
 ! R28   R(14,31)                1.0871         estimate D2E/DX2                !
 ! R29   R(15,21)                1.9189         estimate D2E/DX2                !
 ! R30   R(16,17)                1.4066         estimate D2E/DX2                !
 ! R31   R(16,32)                1.0804         estimate D2E/DX2                !
 ! R32   R(17,18)                1.725          estimate D2E/DX2                !
 ! R33   R(17,19)                1.4061         estimate D2E/DX2                !
 ! R34   R(19,20)                1.4071         estimate D2E/DX2                !
 ! R35   R(19,33)                1.0801         estimate D2E/DX2                !
 ! R36   R(20,34)                1.0805         estimate D2E/DX2                !
 ! A1    A(2,1,21)             112.8113         estimate D2E/DX2                !
 ! A2    A(1,2,3)              122.822          estimate D2E/DX2                !
 ! A3    A(1,2,20)             117.302          estimate D2E/DX2                !
 ! A4    A(3,2,20)             119.876          estimate D2E/DX2                !
 ! A5    A(2,3,4)              122.1291         estimate D2E/DX2                !
 ! A6    A(2,3,16)             119.005          estimate D2E/DX2                !
 ! A7    A(4,3,16)             118.8659         estimate D2E/DX2                !
 ! A8    A(3,4,5)              123.8182         estimate D2E/DX2                !
 ! A9    A(3,4,15)             122.5209         estimate D2E/DX2                !
 ! A10   A(5,4,15)             113.6507         estimate D2E/DX2                !
 ! A11   A(4,5,6)              107.7312         estimate D2E/DX2                !
 ! A12   A(5,6,7)              110.4966         estimate D2E/DX2                !
 ! A13   A(5,6,13)             103.9966         estimate D2E/DX2                !
 ! A14   A(5,6,22)             107.0232         estimate D2E/DX2                !
 ! A15   A(7,6,13)             120.6524         estimate D2E/DX2                !
 ! A16   A(7,6,22)             107.2345         estimate D2E/DX2                !
 ! A17   A(13,6,22)            106.6992         estimate D2E/DX2                !
 ! A18   A(6,7,8)              108.1045         estimate D2E/DX2                !
 ! A19   A(6,7,9)              117.2598         estimate D2E/DX2                !
 ! A20   A(6,7,23)             106.8827         estimate D2E/DX2                !
 ! A21   A(8,7,9)              111.2123         estimate D2E/DX2                !
 ! A22   A(8,7,23)             105.4486         estimate D2E/DX2                !
 ! A23   A(9,7,23)             107.2128         estimate D2E/DX2                !
 ! A24   A(7,8,24)             104.4371         estimate D2E/DX2                !
 ! A25   A(7,9,10)             114.6143         estimate D2E/DX2                !
 ! A26   A(7,9,25)             111.5064         estimate D2E/DX2                !
 ! A27   A(7,9,26)             108.8355         estimate D2E/DX2                !
 ! A28   A(10,9,25)            108.3928         estimate D2E/DX2                !
 ! A29   A(10,9,26)            107.1407         estimate D2E/DX2                !
 ! A30   A(25,9,26)            105.9083         estimate D2E/DX2                !
 ! A31   A(9,10,11)            111.5437         estimate D2E/DX2                !
 ! A32   A(9,10,12)            124.4513         estimate D2E/DX2                !
 ! A33   A(11,10,12)           124.0046         estimate D2E/DX2                !
 ! A34   A(10,11,27)           109.6572         estimate D2E/DX2                !
 ! A35   A(6,13,14)            118.5177         estimate D2E/DX2                !
 ! A36   A(6,13,15)             99.5856         estimate D2E/DX2                !
 ! A37   A(6,13,28)            110.9992         estimate D2E/DX2                !
 ! A38   A(14,13,15)           106.1691         estimate D2E/DX2                !
 ! A39   A(14,13,28)           110.246          estimate D2E/DX2                !
 ! A40   A(15,13,28)           110.5659         estimate D2E/DX2                !
 ! A41   A(13,14,29)           111.6788         estimate D2E/DX2                !
 ! A42   A(13,14,30)           110.5254         estimate D2E/DX2                !
 ! A43   A(13,14,31)           112.5322         estimate D2E/DX2                !
 ! A44   A(29,14,30)           107.3918         estimate D2E/DX2                !
 ! A45   A(29,14,31)           107.5558         estimate D2E/DX2                !
 ! A46   A(30,14,31)           106.8924         estimate D2E/DX2                !
 ! A47   A(4,15,13)            108.8412         estimate D2E/DX2                !
 ! A48   A(3,16,17)            120.6913         estimate D2E/DX2                !
 ! A49   A(3,16,32)            120.4705         estimate D2E/DX2                !
 ! A50   A(17,16,32)           118.8382         estimate D2E/DX2                !
 ! A51   A(16,17,18)           119.9896         estimate D2E/DX2                !
 ! A52   A(16,17,19)           120.0246         estimate D2E/DX2                !
 ! A53   A(18,17,19)           119.9858         estimate D2E/DX2                !
 ! A54   A(17,19,20)           119.8991         estimate D2E/DX2                !
 ! A55   A(17,19,33)           120.0111         estimate D2E/DX2                !
 ! A56   A(20,19,33)           120.0899         estimate D2E/DX2                !
 ! A57   A(2,20,19)            120.504          estimate D2E/DX2                !
 ! A58   A(2,20,34)            119.8404         estimate D2E/DX2                !
 ! A59   A(19,20,34)           119.6556         estimate D2E/DX2                !
 ! D1    D(21,1,2,3)            -0.2743         estimate D2E/DX2                !
 ! D2    D(21,1,2,20)          179.7448         estimate D2E/DX2                !
 ! D3    D(1,2,3,4)             -0.0341         estimate D2E/DX2                !
 ! D4    D(1,2,3,16)           179.9667         estimate D2E/DX2                !
 ! D5    D(20,2,3,4)           179.9464         estimate D2E/DX2                !
 ! D6    D(20,2,3,16)           -0.0528         estimate D2E/DX2                !
 ! D7    D(1,2,20,19)         -179.9894         estimate D2E/DX2                !
 ! D8    D(1,2,20,34)            0.0019         estimate D2E/DX2                !
 ! D9    D(3,2,20,19)            0.029          estimate D2E/DX2                !
 ! D10   D(3,2,20,34)         -179.9797         estimate D2E/DX2                !
 ! D11   D(2,3,4,5)           -178.3959         estimate D2E/DX2                !
 ! D12   D(2,3,4,15)             0.3664         estimate D2E/DX2                !
 ! D13   D(16,3,4,5)             1.6033         estimate D2E/DX2                !
 ! D14   D(16,3,4,15)         -179.6344         estimate D2E/DX2                !
 ! D15   D(2,3,16,17)            0.0398         estimate D2E/DX2                !
 ! D16   D(2,3,16,32)         -179.8709         estimate D2E/DX2                !
 ! D17   D(4,3,16,17)         -179.9593         estimate D2E/DX2                !
 ! D18   D(4,3,16,32)            0.1299         estimate D2E/DX2                !
 ! D19   D(3,4,5,6)           -174.8364         estimate D2E/DX2                !
 ! D20   D(15,4,5,6)             6.3029         estimate D2E/DX2                !
 ! D21   D(3,4,15,13)         -167.8647         estimate D2E/DX2                !
 ! D22   D(5,4,15,13)           11.0127         estimate D2E/DX2                !
 ! D23   D(4,5,6,7)           -150.1761         estimate D2E/DX2                !
 ! D24   D(4,5,6,13)           -19.3233         estimate D2E/DX2                !
 ! D25   D(4,5,6,22)            93.3843         estimate D2E/DX2                !
 ! D26   D(5,6,7,8)             48.2505         estimate D2E/DX2                !
 ! D27   D(5,6,7,9)            174.8834         estimate D2E/DX2                !
 ! D28   D(5,6,7,23)           -64.8343         estimate D2E/DX2                !
 ! D29   D(13,6,7,8)           -73.1948         estimate D2E/DX2                !
 ! D30   D(13,6,7,9)            53.438          estimate D2E/DX2                !
 ! D31   D(13,6,7,23)          173.7203         estimate D2E/DX2                !
 ! D32   D(22,6,7,8)           164.5588         estimate D2E/DX2                !
 ! D33   D(22,6,7,9)           -68.8084         estimate D2E/DX2                !
 ! D34   D(22,6,7,23)           51.4739         estimate D2E/DX2                !
 ! D35   D(5,6,13,14)          -90.3926         estimate D2E/DX2                !
 ! D36   D(5,6,13,15)           24.0118         estimate D2E/DX2                !
 ! D37   D(5,6,13,28)          140.5264         estimate D2E/DX2                !
 ! D38   D(7,6,13,14)           34.1626         estimate D2E/DX2                !
 ! D39   D(7,6,13,15)          148.5669         estimate D2E/DX2                !
 ! D40   D(7,6,13,28)          -94.9184         estimate D2E/DX2                !
 ! D41   D(22,6,13,14)         156.6666         estimate D2E/DX2                !
 ! D42   D(22,6,13,15)         -88.9291         estimate D2E/DX2                !
 ! D43   D(22,6,13,28)          27.5856         estimate D2E/DX2                !
 ! D44   D(6,7,8,24)           -40.112          estimate D2E/DX2                !
 ! D45   D(9,7,8,24)          -170.1875         estimate D2E/DX2                !
 ! D46   D(23,7,8,24)           73.9262         estimate D2E/DX2                !
 ! D47   D(6,7,9,10)            62.2641         estimate D2E/DX2                !
 ! D48   D(6,7,9,25)           -61.3478         estimate D2E/DX2                !
 ! D49   D(6,7,9,26)          -177.8155         estimate D2E/DX2                !
 ! D50   D(8,7,9,10)          -172.639          estimate D2E/DX2                !
 ! D51   D(8,7,9,25)            63.7491         estimate D2E/DX2                !
 ! D52   D(8,7,9,26)           -52.7186         estimate D2E/DX2                !
 ! D53   D(23,7,9,10)          -57.8443         estimate D2E/DX2                !
 ! D54   D(23,7,9,25)          178.5439         estimate D2E/DX2                !
 ! D55   D(23,7,9,26)           62.0762         estimate D2E/DX2                !
 ! D56   D(7,9,10,11)         -173.8164         estimate D2E/DX2                !
 ! D57   D(7,9,10,12)            6.3929         estimate D2E/DX2                !
 ! D58   D(25,9,10,11)         -48.5559         estimate D2E/DX2                !
 ! D59   D(25,9,10,12)         131.6533         estimate D2E/DX2                !
 ! D60   D(26,9,10,11)          65.3248         estimate D2E/DX2                !
 ! D61   D(26,9,10,12)        -114.466          estimate D2E/DX2                !
 ! D62   D(9,10,11,27)        -179.2173         estimate D2E/DX2                !
 ! D63   D(12,10,11,27)          0.5746         estimate D2E/DX2                !
 ! D64   D(6,13,14,29)          50.5562         estimate D2E/DX2                !
 ! D65   D(6,13,14,30)         170.0472         estimate D2E/DX2                !
 ! D66   D(6,13,14,31)         -70.5307         estimate D2E/DX2                !
 ! D67   D(15,13,14,29)        -60.2287         estimate D2E/DX2                !
 ! D68   D(15,13,14,30)         59.2623         estimate D2E/DX2                !
 ! D69   D(15,13,14,31)        178.6843         estimate D2E/DX2                !
 ! D70   D(28,13,14,29)        179.9841         estimate D2E/DX2                !
 ! D71   D(28,13,14,30)        -60.525          estimate D2E/DX2                !
 ! D72   D(28,13,14,31)         58.8971         estimate D2E/DX2                !
 ! D73   D(6,13,15,4)          -21.2022         estimate D2E/DX2                !
 ! D74   D(14,13,15,4)         102.3776         estimate D2E/DX2                !
 ! D75   D(28,13,15,4)        -138.044          estimate D2E/DX2                !
 ! D76   D(3,16,17,18)        -179.9979         estimate D2E/DX2                !
 ! D77   D(3,16,17,19)          -0.0027         estimate D2E/DX2                !
 ! D78   D(32,16,17,18)         -0.0858         estimate D2E/DX2                !
 ! D79   D(32,16,17,19)        179.9095         estimate D2E/DX2                !
 ! D80   D(16,17,19,20)         -0.0219         estimate D2E/DX2                !
 ! D81   D(16,17,19,33)       -179.9963         estimate D2E/DX2                !
 ! D82   D(18,17,19,20)        179.9734         estimate D2E/DX2                !
 ! D83   D(18,17,19,33)         -0.001          estimate D2E/DX2                !
 ! D84   D(17,19,20,2)           0.0086         estimate D2E/DX2                !
 ! D85   D(17,19,20,34)       -179.9827         estimate D2E/DX2                !
 ! D86   D(33,19,20,2)         179.983          estimate D2E/DX2                !
 ! D87   D(33,19,20,34)         -0.0083         estimate D2E/DX2                !
 --------------------------------------------------------------------------------
 Trust Radius=3.00D-01 FncErr=1.00D-07 GrdErr=1.00D-06
 Number of steps in this run=    192 maximum allowed number of steps=    204.
 GradGradGradGradGradGradGradGradGradGradGradGradGradGradGradGradGradGrad

                          Input orientation:                          
 ---------------------------------------------------------------------
 Center     Atomic      Atomic             Coordinates (Angstroms)
 Number     Number       Type             X           Y           Z
 ---------------------------------------------------------------------
      1          8           0       -0.971404    4.599763    0.727593
      2          6           0       -1.748354    3.640169    0.139289
      3          6           0       -1.230719    2.685533   -0.780547
      4          6           0        0.205522    2.662020   -1.173225
      5          7           0        0.694548    1.846022   -2.010507
      6          6           0        2.121123    2.047483   -2.037882
      7          6           0        2.691651    1.705294   -3.440675
      8          8           0        1.890016    2.351590   -4.410961
      9          6           0        4.194062    1.982547   -3.681277
     10          6           0        5.142493    1.179663   -2.785453
     11          8           0        6.433602    1.566952   -2.952381
     12          8           0        4.785997    0.293959   -2.015056
     13          6           0        2.311284    3.456205   -1.432344
     14          6           0        2.310385    4.671971   -2.381466
     15          8           0        1.120251    3.548728   -0.671845
     16          6           0       -2.107970    1.726992   -1.341033
     17          6           0       -3.472001    1.714679   -0.997730
     18         17           0       -4.525209    0.538015   -1.691820
     19          6           0       -3.977356    2.661133   -0.088868
     20          6           0       -3.116500    3.619779    0.476642
     21          1           0       -0.061340    4.552857    0.458600
     22          1           0        2.557681    1.339788   -1.329504
     23          1           0        2.531367    0.636355   -3.596103
     24          1           0        0.999981    2.251400   -4.088442
     25          1           0        4.427420    3.037889   -3.568812
     26          1           0        4.437454    1.731062   -4.713803
     27          1           0        6.995514    1.047727   -2.397611
     28          1           0        3.185380    3.486783   -0.780622
     29          1           0        1.445181    4.664455   -3.044725
     30          1           0        2.276628    5.600955   -1.812474
     31          1           0        3.200461    4.715055   -3.004067
     32          1           0       -1.739874    0.990071   -2.040135
     33          1           0       -5.024798    2.651440    0.174639
     34          1           0       -3.508958    4.345044    1.174821
 ---------------------------------------------------------------------
                    Distance matrix (angstroms):
                    1          2          3          4          5
     1  O    0.000000
     2  C    1.367689   0.000000
     3  C    2.450716   1.423156   0.000000
     4  C    2.958566   2.548941   1.489140   0.000000
     5  N    4.225598   3.715960   2.433975   1.267296   0.000000
     6  C    4.870904   4.716945   3.636323   2.189707   1.440990
     7  C    6.258625   6.022751   4.839642   3.498213   2.460408
     8  O    6.296566   5.966821   4.799001   3.662898   2.728905
     9  C    7.278049   7.256497   6.191662   4.760300   3.880298
    10  C    7.836984   7.879846   6.848732   5.400958   4.563857
    11  O    8.807625   8.988941   8.044247   6.569136   5.822521
    12  O    7.694786   7.650887   6.591245   5.224667   4.375943
    13  C    4.092566   4.357124   3.683010   2.265415   2.353890
    14  C    4.521239   4.887963   4.364435   3.151222   3.276359
    15  O    2.727292   2.982481   2.506787   1.369073   2.207362
    16  C    3.718038   2.445593   1.415102   2.500936   2.883829
    17  C    4.189682   2.823346   2.452156   3.801635   4.289883
    18  Cl   5.914464   4.548323   4.036820   5.211540   5.390576
    19  C    3.668875   2.445203   2.832495   4.321146   5.117010
    20  C    2.371662   1.409272   2.451430   3.830822   4.884282
    21  H    0.950144   1.944473   2.527812   2.511839   3.740964
    22  H    5.226234   5.098141   4.057630   2.702845   2.047267
    23  H    6.831717   6.425890   5.126381   3.922144   2.711330
    24  H    5.709235   5.230271   4.013311   3.049306   2.139027
    25  H    7.074309   7.228619   6.317683   4.868731   4.217013
    26  H    8.191092   8.090823   6.964891   5.595679   4.618481
    27  H    9.265832   9.466353   8.542143   7.085835   6.363120
    28  H    4.559856   5.021105   4.488199   3.116717   3.226292
    29  H    4.480452   4.624475   4.025304   3.008158   3.094612
    30  H    4.243117   4.884111   4.676114   3.651775   4.079426
    31  H    5.598485   5.960439   5.357085   4.066521   3.936764
    32  H    4.613105   3.431178   2.172646   2.707676   2.580686
    33  H    4.531194   3.422560   3.912618   5.401213   6.175312
    34  H    2.589223   2.160764   3.430425   4.705662   5.836171
                    6          7          8          9         10
     6  C    0.000000
     7  C    1.552554   0.000000
     8  O    2.403621   1.414840   0.000000
     9  C    2.646137   1.546608   2.444843   0.000000
    10  C    3.231200   2.590797   3.820248   1.531876   0.000000
    11  O    4.434489   3.776211   4.836040   2.391558   1.358242
    12  O    3.190129   2.900093   4.284963   2.444997   1.226814
    13  C    1.545100   2.691424   3.204653   3.282411   3.876763
    14  C    2.653640   3.173084   3.111226   3.531395   4.514450
    15  O    2.263082   3.678854   4.000833   4.577982   5.124279
    16  C    4.298086   5.238829   5.079220   6.727381   7.413173
    17  C    5.698746   6.630134   6.388038   8.126604   8.814290
    18  Cl   6.824367   7.516921   7.199854   9.059266   9.750498
    19  C    6.431692   7.524885   7.293995   8.951980   9.624862
    20  C    6.018940   7.262592   7.110708   8.568147   9.209039
    21  H    4.156016   5.558050   5.689112   6.469430   6.998728
    22  H    1.092344   2.146762   3.311329   2.936276   2.970973
    23  H    2.141877   1.092007   2.004334   2.141038   2.787529
    24  H    2.345919   1.891978   0.951955   3.231133   4.472897
    25  H    2.940010   2.192059   2.760188   1.086670   2.139623
    26  H    3.553317   2.160867   2.639358   1.090227   2.125948
    27  H    4.988848   4.477009   5.640899   3.220221   1.897766
    28  H    2.187448   3.239345   4.018208   3.419644   3.629386
    29  H    2.884298   3.235289   2.722834   3.892836   5.087348
    30  H    3.564008   4.242577   4.178514   4.501317   5.357956
    31  H    3.035527   3.083533   3.046733   2.985374   4.039589
    32  H    4.003177   4.702283   4.544299   6.236181   6.925202
    33  H    7.504945   8.573755   8.302547  10.015133  10.691215
    34  H    6.877358   8.168148   8.020208   9.407422  10.027513
                   11         12         13         14         15
    11  O    0.000000
    12  O    2.283351   0.000000
    13  C    4.782603   4.057531   0.000000
    14  C    5.193073   5.042807   1.542375   0.000000
    15  O    6.112281   5.082857   1.416149   2.366622   0.000000
    16  C    8.693705   7.073519   4.746401   5.410847   3.766689
    17  C   10.097696   8.440849   6.055426   6.640504   4.955675
    18  Cl  11.078956   9.320011   7.437795   8.018139   6.478886
    19  C   10.852879   9.279551   6.479511   6.988216   5.207042
    20  C   10.352620   8.928555   5.756025   6.223100   4.390231
    21  H    7.920523   6.910417   3.226090   3.702059   1.918942
    22  H    4.208099   2.555217   2.133192   3.503031   2.716272
    23  H    4.062982   2.774942   3.561158   4.220234   4.361703
    24  H    5.593151   4.739665   3.197800   3.238841   3.656591
    25  H    2.562891   3.173624   3.036036   2.926064   4.426143
    26  H    2.667236   3.077334   4.273721   4.314298   5.535808
    27  H    0.945045   2.365688   5.354859   5.923330   6.614529
    28  H    4.353531   3.778879   1.090743   2.175543   2.068919
    29  H    5.872597   5.596651   2.193120   1.090205   2.642156
    30  H    5.903643   5.873856   2.178452   1.089909   2.617227
    31  H    4.512918   4.799808   2.201284   1.087071   3.335694
    32  H    8.244434   6.562941   4.781538   5.484295   4.074219
    33  H   11.926831  10.324930   7.553022   8.026277   6.267638
    34  H   11.117828   9.766928   6.439143   6.827797   5.047165
                   16         17         18         19         20
    16  C    0.000000
    17  C    1.406623   0.000000
    18  Cl   2.716572   1.724977   0.000000
    19  C    2.436214   1.406126   2.716105   0.000000
    20  C    2.811355   2.435069   4.022929   1.407081   0.000000
    21  H    3.925925   4.669985   6.377256   4.383323   3.194521
    22  H    4.681705   6.050428   7.137327   6.781728   6.376273
    23  H    5.272407   6.629838   7.309667   7.665761   7.575386
    24  H    4.181222   5.462526   6.261566   6.398309   6.297449
    25  H    7.027999   8.412027   9.482723   9.104516   8.579920
    26  H    7.363299   8.738933   9.533366   9.646973   9.357895
    27  H    9.189732  10.581747  11.553571  11.328603  10.822643
    28  H    5.606289   6.892620   8.305341   7.243273   6.427448
    29  H    4.914889   6.088518   7.382643   6.492634   5.856646
    30  H    5.869799   6.986679   8.480148   7.122197   6.184734
    31  H    6.314558   7.586132   8.880069   8.014864   7.295133
    32  H    1.080412   2.147540   2.843197   3.406790   3.891610
    33  H    3.414638   2.159433   2.863533   1.080123   2.161131
    34  H    3.891849   3.411768   4.872768   2.156818   1.080503
                   21         22         23         24         25
    21  H    0.000000
    22  H    4.514466   0.000000
    23  H    6.204977   2.373390   0.000000
    24  H    5.205641   3.296848   2.279454   0.000000
    25  H    6.218050   3.375496   3.059923   3.554704   0.000000
    26  H    7.413193   3.891031   2.465929   3.532428   1.737499
    27  H    8.381114   4.573895   4.640498   6.344616   3.453630
    28  H    3.635021   2.303229   4.059508   4.152567   3.085154
    29  H    3.815147   3.902954   4.208255   2.666530   3.437169
    30  H    3.423796   4.297650   5.281428   4.246101   3.778880
    31  H    4.759802   3.822271   4.175403   3.476719   2.153428
    32  H    4.664182   4.369929   4.559567   3.646000   6.675772
    33  H    5.322775   7.840718   8.681860   7.391336  10.173849
    34  H    3.527354   7.218540   8.544098   7.239877   9.337923
                   26         27         28         29         30
    26  H    0.000000
    27  H    3.517863   0.000000
    28  H    4.485550   4.804245   0.000000
    29  H    4.510467   6.656251   3.088910   0.000000
    30  H    5.297448   6.583476   2.521958   1.756923   0.000000
    31  H    3.654800   5.312204   2.540194   1.756480   1.748765
    32  H    6.771776   8.742890   5.663751   4.965367   6.119180
    33  H   10.690097  12.396623   8.307668   7.501811   8.121519
    34  H   10.230066  11.574908   7.026701   6.515373   6.631308
                   31         32         33         34
    31  H    0.000000
    32  H    6.261915   0.000000
    33  H    9.056355   4.296056   0.000000
    34  H    7.913047   4.972066   2.483230   0.000000
 Stoichiometry    C13H14ClNO5
 Framework group  C1[X(C13H14ClNO5)]
 Deg. of freedom    96
 Full point group                 C1      NOp   1
 Largest Abelian subgroup         C1      NOp   1
 Largest concise Abelian subgroup C1      NOp   1
                         Standard orientation:                         
 ---------------------------------------------------------------------
 Center     Atomic      Atomic             Coordinates (Angstroms)
 Number     Number       Type             X           Y           Z
 ---------------------------------------------------------------------
      1          8           0        2.137529    2.894589   -0.351994
      2          6           0        2.690513    1.646559   -0.267123
      3          6           0        1.908586    0.460819   -0.177762
      4          6           0        0.419811    0.492675   -0.169333
      5          7           0       -0.307169   -0.539771   -0.061647
      6          6           0       -1.679510   -0.128219   -0.215781
      7          6           0       -2.620639   -1.059246    0.595322
      8          8           0       -2.088513   -1.194294    1.899306
      9          6           0       -4.120882   -0.685937    0.639025
     10          6           0       -4.820113   -0.693054   -0.723938
     11          8           0       -6.093117   -0.228115   -0.633860
     12          8           0       -4.301047   -1.073867   -1.768268
     13          6           0       -1.646914    1.391889    0.059075
     14          6           0       -1.858479    1.883345    1.505668
     15          8           0       -0.291913    1.659140   -0.254019
     16          6           0        2.565625   -0.789709   -0.094129
     17          6           0        3.970258   -0.864409   -0.098067
     18         17           0        4.752402   -2.398439    0.004628
     19          6           0        4.737102    0.310940   -0.185788
     20          6           0        4.097198    1.561260   -0.270042
     21          1           0        1.187543    2.877578   -0.348649
     22          1           0       -1.933601   -0.251007   -1.271042
     23          1           0       -2.547676   -2.052342    0.147086
     24          1           0       -1.148690   -1.266033    1.765871
     25          1           0       -4.276268    0.286224    1.099035
     26          1           0       -4.643757   -1.403121    1.272147
     27          1           0       -6.502477   -0.255293   -1.485208
     28          1           0       -2.310201    1.926563   -0.622022
     29          1           0       -1.206024    1.363092    2.207229
     30          1           0       -1.637944    2.947852    1.583723
     31          1           0       -2.881672    1.746913    1.846526
     32          1           0        1.995279   -1.704891   -0.027500
     33          1           0        5.815682    0.253320   -0.188854
     34          1           0        4.690302    2.461901   -0.337578
 ---------------------------------------------------------------------
 Rotational constants (GHZ):      0.6100603      0.1355961      0.1207303
 Standard basis: 6-31+G(d,p) (6D, 7F)
 There are   454 symmetry adapted basis functions of A   symmetry.
 Integral buffers will be    131072 words long.
 Raffenetti 2 integral format.
 Two-electron integral symmetry is turned on.
   454 basis functions,   762 primitive gaussians,   454 cartesian basis functions
    78 alpha electrons       78 beta electrons
       nuclear repulsion energy      1665.5349836053 Hartrees.
 NAtoms=   34 NActive=   34 NUniq=   34 SFac= 1.00D+00 NAtFMM=   50 NAOKFM=F Big=F
 Using the following non-standard input for PCM:
 radii=UA0
 --- end of non-standard input.
 ------------------------------------------------------------------------------
 United Atom Topological Model (UA0  parameters set).
  Nord Group  Hybr  Charge Alpha Radius          Bonded to
    1   OH    *     0.00   1.10  1.850   C2   [s]
    2   C     *     0.00   1.10  1.925   O1   [s]  C3   [s]  C20  [s]
    3   C     *     0.00   1.10  1.925   C2   [s]  C4   [s]  C16  [s]
    4   C     *     0.00   1.10  1.925   C3   [s]  N5   [d]  O15  [s]
    5   N     *     0.00   1.10  1.830   C4   [d]  C6   [s]
    6   CH    *     0.00   1.10  2.125   N5   [s]  C7   [s]  C13  [s]
    7   CH    *     0.00   1.10  2.125   C6   [s]  O8   [s]  C9   [s]
    8   OH    *     0.00   1.10  1.850   C7   [s]
    9   CH2   *     0.00   1.10  2.325   C7   [s]  C10  [s]
   10   C     *     0.00   1.10  1.925   C9   [s]  O11  [s]  O12  [d]
   11   OH    *     0.00   1.10  1.850   C10  [s]
   12   O     *     0.00   1.10  1.750   C10  [d]
   13   CH    *     0.00   1.10  2.125   C6   [s]  C14  [s]  O15  [s]
   14   CH3   *     0.00   1.10  2.525   C13  [s]
   15   O     *     0.00   1.10  1.750   C4   [s]  C13  [s]
   16   CH    *     0.00   1.10  2.125   C3   [s]  C17  [s]
   17   C     *     0.00   1.10  1.925   C16  [s] Cl18  [s]  C19  [s]
   18  Cl     *     0.00   1.10  1.973   C17  [s]
   19   CH    *     0.00   1.10  2.125   C17  [s]  C20  [s]
   20   CH    *     0.00   1.10  2.125   C2   [s]  C19  [s]
 ------------------------------------------------------------------------------
 Polarizable Continuum Model (PCM)
 =================================
 Model                : PCM.
 Atomic radii         : UA0 (Simple United Atom Topological Model).
 Polarization charges : Total charges.
 Charge compensation  : None.
 Solution method      : Matrix inversion.
 Cavity type          : Scaled VdW (van der Waals Surface) (Alpha=1.100).
 Cavity algorithm     : GePol (No added spheres)
                        Default sphere list used, NSphG=   20.
                        Lebedev-Laikov grids with approx.  5.0 points / Ang**2.
                        Smoothing algorithm: Karplus/York (Gamma=1.0000).
                        Polarization charges: spherical gaussians, with
                                              point-specific exponents (IZeta= 3).
                        Self-potential: point-specific (ISelfS= 7).
                        Self-field    : sphere-specific E.n sum rule (ISelfD= 2).
 1st derivatives      : Analytical E(r).r(x)/FMM algorithm (CHGder, D1EAlg=3).
                        Cavity 1st derivative terms included.
 Solvent              : Methanol, Eps=  32.613000 Eps(inf)=   1.765709
 ------------------------------------------------------------------------------
 Spheres list:
 ISph  on   Nord    Re0     Alpha      Xe            Ye            Ze
    1   O      1    1.850   1.100      2.137529      2.894589     -0.351994
    2   C      2    1.925   1.100      2.690513      1.646559     -0.267123
    3   C      3    1.925   1.100      1.908586      0.460819     -0.177762
    4   C      4    1.925   1.100      0.419811      0.492675     -0.169333
    5   N      5    1.830   1.100     -0.307169     -0.539771     -0.061647
    6   C      6    2.125   1.100     -1.679510     -0.128219     -0.215781
    7   C      7    2.125   1.100     -2.620639     -1.059246      0.595322
    8   O      8    1.850   1.100     -2.088513     -1.194294      1.899306
    9   C      9    2.325   1.100     -4.120882     -0.685937      0.639025
   10   C     10    1.925   1.100     -4.820113     -0.693054     -0.723938
   11   O     11    1.850   1.100     -6.093117     -0.228115     -0.633860
   12   O     12    1.750   1.100     -4.301047     -1.073867     -1.768268
   13   C     13    2.125   1.100     -1.646914      1.391889      0.059075
   14   C     14    2.525   1.100     -1.858479      1.883345      1.505668
   15   O     15    1.750   1.100     -0.291913      1.659140     -0.254019
   16   C     16    2.125   1.100      2.565625     -0.789709     -0.094129
   17   C     17    1.925   1.100      3.970258     -0.864409     -0.098067
   18  Cl     18    1.973   1.100      4.752402     -2.398439      0.004628
   19   C     19    2.125   1.100      4.737102      0.310940     -0.185788
   20   C     20    2.125   1.100      4.097198      1.561260     -0.270042
 ------------------------------------------------------------------------------
 One-electron integrals computed using PRISM.
 NBasis=   454 RedAO= T  NBF=   454
 NBsUse=   452 1.00D-06 NBFU=   452
 Harris functional with IExCor= 1009 diagonalized for initial guess.
 ExpMin= 4.38D-02 ExpMax= 2.52D+04 ExpMxC= 3.78D+03 IAcc=3 IRadAn=         5 AccDes= 0.00D+00
 HarFok:  IExCor= 1009 AccDes= 0.00D+00 IRadAn=         5 IDoV= 1
 ScaDFX=  1.000000  1.000000  1.000000  1.000000
 FoFCou: FMM=F IPFlag=           0 FMFlag=      100000 FMFlg1=           0
         NFxFlg=           0 DoJE=T BraDBF=F KetDBF=T FulRan=T
         Omega=  0.000000  0.000000  1.000000  0.000000  0.000000 ICntrl=     500 IOpCl=  0
         NMat0=    1 NMatS0=    1 NMatT0=    0 NMatD0=    1 NMtDS0=    0 NMtDT0=    0
         I1Cent=           4 NGrid=           0.
 Petite list used in FoFCou.
 Initial guess orbital symmetries:
       Occupied  (A) (A) (A) (A) (A) (A) (A) (A) (A) (A) (A) (A)
                 (A) (A) (A) (A) (A) (A) (A) (A) (A) (A) (A) (A)
                 (A) (A) (A) (A) (A) (A) (A) (A) (A) (A) (A) (A)
                 (A) (A) (A) (A) (A) (A) (A) (A) (A) (A) (A) (A)
                 (A) (A) (A) (A) (A) (A) (A) (A) (A) (A) (A) (A)
                 (A) (A) (A) (A) (A) (A) (A) (A) (A) (A) (A) (A)
                 (A) (A) (A) (A) (A) (A)
       Virtual   (A) (A) (A) (A) (A) (A) (A) (A) (A) (A) (A) (A)
                 (A) (A) (A) (A) (A) (A) (A) (A) (A) (A) (A) (A)
                 (A) (A) (A) (A) (A) (A) (A) (A) (A) (A) (A) (A)
                 (A) (A) (A) (A) (A) (A) (A) (A) (A) (A) (A) (A)
                 (A) (A) (A) (A) (A) (A) (A) (A) (A) (A) (A) (A)
                 (A) (A) (A) (A) (A) (A) (A) (A) (A) (A) (A) (A)
                 (A) (A) (A) (A) (A) (A) (A) (A) (A) (A) (A) (A)
                 (A) (A) (A) (A) (A) (A) (A) (A) (A) (A) (A) (A)
                 (A) (A) (A) (A) (A) (A) (A) (A) (A) (A) (A) (A)
                 (A) (A) (A) (A) (A) (A) (A) (A) (A) (A) (A) (A)
                 (A) (A) (A) (A) (A) (A) (A) (A) (A) (A) (A) (A)
                 (A) (A) (A) (A) (A) (A) (A) (A) (A) (A) (A) (A)
                 (A) (A) (A) (A) (A) (A) (A) (A) (A) (A) (A) (A)
                 (A) (A) (A) (A) (A) (A) (A) (A) (A) (A) (A) (A)
                 (A) (A) (A) (A) (A) (A) (A) (A) (A) (A) (A) (A)
                 (A) (A) (A) (A) (A) (A) (A) (A) (A) (A) (A) (A)
                 (A) (A) (A) (A) (A) (A) (A) (A) (A) (A) (A) (A)
                 (A) (A) (A) (A) (A) (A) (A) (A) (A) (A) (A) (A)
                 (A) (A) (A) (A) (A) (A) (A) (A) (A) (A) (A) (A)
                 (A) (A) (A) (A) (A) (A) (A) (A) (A) (A) (A) (A)
                 (A) (A) (A) (A) (A) (A) (A) (A) (A) (A) (A) (A)
                 (A) (A) (A) (A) (A) (A) (A) (A) (A) (A) (A) (A)
                 (A) (A) (A) (A) (A) (A) (A) (A) (A) (A) (A) (A)
                 (A) (A) (A) (A) (A) (A) (A) (A) (A) (A) (A) (A)
                 (A) (A) (A) (A) (A) (A) (A) (A) (A) (A) (A) (A)
                 (A) (A) (A) (A) (A) (A) (A) (A) (A) (A) (A) (A)
                 (A) (A) (A) (A) (A) (A) (A) (A) (A) (A) (A) (A)
                 (A) (A) (A) (A) (A) (A) (A) (A) (A) (A) (A) (A)
                 (A) (A) (A) (A) (A) (A) (A) (A) (A) (A) (A) (A)
                 (A) (A) (A) (A) (A) (A) (A) (A) (A) (A) (A) (A)
                 (A) (A) (A) (A) (A) (A) (A) (A) (A) (A) (A) (A)
                 (A) (A)
 The electronic state of the initial guess is 1-A.
 Requested convergence on RMS density matrix=1.00D-08 within 128 cycles.
 Requested convergence on MAX density matrix=1.00D-06.
 Requested convergence on             energy=1.00D-06.
 No special actions if energy rises.
 Error on total polarization charges =  0.01520
 SCF Done:  E(RM062X) =  -1394.55310341     A.U. after   15 cycles
             Convg  =    0.8666D-08             -V/T =  2.0067

 **********************************************************************

            Population analysis using the SCF density.

 **********************************************************************

 Orbital symmetries:
       Occupied  (A) (A) (A) (A) (A) (A) (A) (A) (A) (A) (A) (A)
                 (A) (A) (A) (A) (A) (A) (A) (A) (A) (A) (A) (A)
                 (A) (A) (A) (A) (A) (A) (A) (A) (A) (A) (A) (A)
                 (A) (A) (A) (A) (A) (A) (A) (A) (A) (A) (A) (A)
                 (A) (A) (A) (A) (A) (A) (A) (A) (A) (A) (A) (A)
                 (A) (A) (A) (A) (A) (A) (A) (A) (A) (A) (A) (A)
                 (A) (A) (A) (A) (A) (A)
       Virtual   (A) (A) (A) (A) (A) (A) (A) (A) (A) (A) (A) (A)
                 (A) (A) (A) (A) (A) (A) (A) (A) (A) (A) (A) (A)
                 (A) (A) (A) (A) (A) (A) (A) (A) (A) (A) (A) (A)
                 (A) (A) (A) (A) (A) (A) (A) (A) (A) (A) (A) (A)
                 (A) (A) (A) (A) (A) (A) (A) (A) (A) (A) (A) (A)
                 (A) (A) (A) (A) (A) (A) (A) (A) (A) (A) (A) (A)
                 (A) (A) (A) (A) (A) (A) (A) (A) (A) (A) (A) (A)
                 (A) (A) (A) (A) (A) (A) (A) (A) (A) (A) (A) (A)
                 (A) (A) (A) (A) (A) (A) (A) (A) (A) (A) (A) (A)
                 (A) (A) (A) (A) (A) (A) (A) (A) (A) (A) (A) (A)
                 (A) (A) (A) (A) (A) (A) (A) (A) (A) (A) (A) (A)
                 (A) (A) (A) (A) (A) (A) (A) (A) (A) (A) (A) (A)
                 (A) (A) (A) (A) (A) (A) (A) (A) (A) (A) (A) (A)
                 (A) (A) (A) (A) (A) (A) (A) (A) (A) (A) (A) (A)
                 (A) (A) (A) (A) (A) (A) (A) (A) (A) (A) (A) (A)
                 (A) (A) (A) (A) (A) (A) (A) (A) (A) (A) (A) (A)
                 (A) (A) (A) (A) (A) (A) (A) (A) (A) (A) (A) (A)
                 (A) (A) (A) (A) (A) (A) (A) (A) (A) (A) (A) (A)
                 (A) (A) (A) (A) (A) (A) (A) (A) (A) (A) (A) (A)
                 (A) (A) (A) (A) (A) (A) (A) (A) (A) (A) (A) (A)
                 (A) (A) (A) (A) (A) (A) (A) (A) (A) (A) (A) (A)
                 (A) (A) (A) (A) (A) (A) (A) (A) (A) (A) (A) (A)
                 (A) (A) (A) (A) (A) (A) (A) (A) (A) (A) (A) (A)
                 (A) (A) (A) (A) (A) (A) (A) (A) (A) (A) (A) (A)
                 (A) (A) (A) (A) (A) (A) (A) (A) (A) (A) (A) (A)
                 (A) (A) (A) (A) (A) (A) (A) (A) (A) (A) (A) (A)
                 (A) (A) (A) (A) (A) (A) (A) (A) (A) (A) (A) (A)
                 (A) (A) (A) (A) (A) (A) (A) (A) (A) (A) (A) (A)
                 (A) (A) (A) (A) (A) (A) (A) (A) (A) (A) (A) (A)
                 (A) (A) (A) (A) (A) (A) (A) (A) (A) (A) (A) (A)
                 (A) (A) (A) (A) (A) (A) (A) (A) (A) (A) (A) (A)
                 (A) (A)
 The electronic state is 1-A.
 Alpha  occ. eigenvalues -- -102.68323 -19.70683 -19.70346 -19.68488 -19.66125
 Alpha  occ. eigenvalues --  -19.64900 -14.76575 -10.71505 -10.67472 -10.64904
 Alpha  occ. eigenvalues --  -10.62751 -10.62515 -10.61871 -10.60005 -10.59152
 Alpha  occ. eigenvalues --  -10.58900 -10.58631 -10.57924 -10.57594 -10.54648
 Alpha  occ. eigenvalues --   -9.83004  -7.55407  -7.54745  -7.54734  -1.25006
 Alpha  occ. eigenvalues --   -1.24471  -1.19789  -1.16255  -1.15399  -1.04235
 Alpha  occ. eigenvalues --   -1.00853  -0.95340  -0.91930  -0.88914  -0.86732
 Alpha  occ. eigenvalues --   -0.83693  -0.81259  -0.77297  -0.73721  -0.71983
 Alpha  occ. eigenvalues --   -0.70295  -0.67597  -0.67233  -0.63892  -0.61590
 Alpha  occ. eigenvalues --   -0.60343  -0.59532  -0.58832  -0.58119  -0.56500
 Alpha  occ. eigenvalues --   -0.55685  -0.54659  -0.53701  -0.53098  -0.52494
 Alpha  occ. eigenvalues --   -0.51243  -0.50497  -0.49043  -0.47951  -0.47858
 Alpha  occ. eigenvalues --   -0.47140  -0.46575  -0.46361  -0.45991  -0.45389
 Alpha  occ. eigenvalues --   -0.44313  -0.43109  -0.42060  -0.41184  -0.40851
 Alpha  occ. eigenvalues --   -0.39251  -0.38891  -0.37400  -0.37343  -0.34846
 Alpha  occ. eigenvalues --   -0.34342  -0.31332  -0.28746
 Alpha virt. eigenvalues --   -0.03568   0.00590   0.00784   0.01563   0.01980
 Alpha virt. eigenvalues --    0.02555   0.02900   0.02994   0.03439   0.04326
 Alpha virt. eigenvalues --    0.04668   0.04897   0.05250   0.05532   0.06236
 Alpha virt. eigenvalues --    0.06360   0.06866   0.07296   0.07709   0.08185
 Alpha virt. eigenvalues --    0.08743   0.09233   0.09438   0.09501   0.09872
 Alpha virt. eigenvalues --    0.10577   0.11102   0.11338   0.11730   0.12588
 Alpha virt. eigenvalues --    0.13046   0.13166   0.13481   0.13994   0.14739
 Alpha virt. eigenvalues --    0.15023   0.15148   0.15288   0.16099   0.16471
 Alpha virt. eigenvalues --    0.16842   0.16917   0.17518   0.18228   0.18423
 Alpha virt. eigenvalues --    0.19098   0.19371   0.19586   0.20020   0.20631
 Alpha virt. eigenvalues --    0.20902   0.21171   0.21349   0.21598   0.22239
 Alpha virt. eigenvalues --    0.22439   0.22592   0.22898   0.23176   0.24029
 Alpha virt. eigenvalues --    0.24668   0.24901   0.25250   0.25324   0.25727
 Alpha virt. eigenvalues --    0.26156   0.26259   0.26955   0.27089   0.27340
 Alpha virt. eigenvalues --    0.27829   0.28244   0.29018   0.29410   0.29541
 Alpha virt. eigenvalues --    0.29815   0.30535   0.30651   0.30775   0.31169
 Alpha virt. eigenvalues --    0.31493   0.32270   0.32464   0.33080   0.33153
 Alpha virt. eigenvalues --    0.33394   0.34038   0.34546   0.34724   0.35168
 Alpha virt. eigenvalues --    0.35683   0.36947   0.36996   0.37906   0.38560
 Alpha virt. eigenvalues --    0.39526   0.39894   0.40485   0.40976   0.41625
 Alpha virt. eigenvalues --    0.42121   0.42575   0.42969   0.43548   0.43967
 Alpha virt. eigenvalues --    0.44821   0.45805   0.46085   0.46449   0.48494
 Alpha virt. eigenvalues --    0.49094   0.49582   0.51147   0.54671   0.54870
 Alpha virt. eigenvalues --    0.57015   0.59329   0.60965   0.64471   0.66857
 Alpha virt. eigenvalues --    0.67951   0.69921   0.70363   0.70785   0.71299
 Alpha virt. eigenvalues --    0.72165   0.72930   0.74457   0.74909   0.75209
 Alpha virt. eigenvalues --    0.75471   0.76602   0.77708   0.77803   0.78251
 Alpha virt. eigenvalues --    0.79454   0.79616   0.80747   0.81180   0.82989
 Alpha virt. eigenvalues --    0.84354   0.84738   0.85464   0.87128   0.87447
 Alpha virt. eigenvalues --    0.88740   0.90065   0.90783   0.91610   0.92546
 Alpha virt. eigenvalues --    0.93104   0.94752   0.95375   0.97635   0.98575
 Alpha virt. eigenvalues --    0.98916   0.99715   1.01155   1.02011   1.03061
 Alpha virt. eigenvalues --    1.04022   1.05270   1.06028   1.06220   1.07019
 Alpha virt. eigenvalues --    1.07537   1.09133   1.10321   1.11263   1.12444
 Alpha virt. eigenvalues --    1.14096   1.15484   1.16267   1.16909   1.18193
 Alpha virt. eigenvalues --    1.19187   1.19535   1.20576   1.20776   1.21808
 Alpha virt. eigenvalues --    1.23792   1.24446   1.24967   1.26154   1.26878
 Alpha virt. eigenvalues --    1.27393   1.28150   1.28455   1.29222   1.30683
 Alpha virt. eigenvalues --    1.31943   1.33858   1.34871   1.36077   1.36442
 Alpha virt. eigenvalues --    1.36828   1.38821   1.39197   1.39359   1.40055
 Alpha virt. eigenvalues --    1.40409   1.41094   1.42103   1.43011   1.43519
 Alpha virt. eigenvalues --    1.44083   1.44389   1.44723   1.45803   1.47067
 Alpha virt. eigenvalues --    1.48123   1.48837   1.51938   1.52833   1.54258
 Alpha virt. eigenvalues --    1.57346   1.57664   1.58395   1.60513   1.62691
 Alpha virt. eigenvalues --    1.63573   1.64663   1.65716   1.66210   1.66731
 Alpha virt. eigenvalues --    1.68130   1.71343   1.72591   1.74623   1.75842
 Alpha virt. eigenvalues --    1.76930   1.77960   1.79338   1.80200   1.81263
 Alpha virt. eigenvalues --    1.81758   1.85000   1.86142   1.86623   1.87654
 Alpha virt. eigenvalues --    1.89739   1.91493   1.92958   1.93121   1.94935
 Alpha virt. eigenvalues --    1.95501   1.96123   1.97456   1.97646   1.98444
 Alpha virt. eigenvalues --    1.99828   2.00563   2.01836   2.02323   2.04161
 Alpha virt. eigenvalues --    2.05446   2.05695   2.08412   2.09134   2.09665
 Alpha virt. eigenvalues --    2.10594   2.11215   2.13383   2.14127   2.17262
 Alpha virt. eigenvalues --    2.18858   2.20130   2.21452   2.21619   2.22873
 Alpha virt. eigenvalues --    2.24771   2.25794   2.26202   2.28216   2.28989
 Alpha virt. eigenvalues --    2.31605   2.33028   2.36332   2.37341   2.39125
 Alpha virt. eigenvalues --    2.41007   2.42213   2.42748   2.44043   2.44150
 Alpha virt. eigenvalues --    2.45580   2.46243   2.47843   2.48011   2.50497
 Alpha virt. eigenvalues --    2.51373   2.51969   2.52700   2.54311   2.55032
 Alpha virt. eigenvalues --    2.57253   2.57678   2.58919   2.60297   2.61139
 Alpha virt. eigenvalues --    2.62851   2.63142   2.66259   2.67784   2.68434
 Alpha virt. eigenvalues --    2.68687   2.69088   2.70351   2.71110   2.72405
 Alpha virt. eigenvalues --    2.73604   2.74599   2.74955   2.76034   2.78462
 Alpha virt. eigenvalues --    2.78988   2.79671   2.80373   2.82359   2.84156
 Alpha virt. eigenvalues --    2.86720   2.88123   2.89236   2.92137   2.92991
 Alpha virt. eigenvalues --    2.97106   3.00531   3.01232   3.02830   3.04206
 Alpha virt. eigenvalues --    3.06097   3.06976   3.08346   3.12025   3.13906
 Alpha virt. eigenvalues --    3.16307   3.19842   3.24092   3.26404   3.27801
 Alpha virt. eigenvalues --    3.32552   3.35787   3.38941   3.40708   3.42418
 Alpha virt. eigenvalues --    3.47152   3.47640   3.50436   3.51980   3.53101
 Alpha virt. eigenvalues --    3.56191   3.64497   3.66207   3.76148   4.25187
 Alpha virt. eigenvalues --    4.28113   4.29740   4.31282   4.35497   4.36907
 Alpha virt. eigenvalues --    4.40705   4.43564   4.45602   4.46300   4.50556
 Alpha virt. eigenvalues --    4.52508   4.57415   4.62148   4.67639   4.71037
 Alpha virt. eigenvalues --    4.75756   4.76451   4.88403   4.97233
          Condensed to atoms (all electrons):
              1          2          3          4          5          6
     1  O    8.420017   0.424630   0.087135  -0.032544  -0.000756   0.015000
     2  C    0.424630  12.969444  -1.127648  -1.241414  -0.099576  -0.126613
     3  C    0.087135  -1.127648  10.635678   0.379365  -0.391529   0.581615
     4  C   -0.032544  -1.241414   0.379365  10.131033   0.928344  -4.288265
     5  N   -0.000756  -0.099576  -0.391529   0.928344   7.534214  -1.357804
     6  C    0.015000  -0.126613   0.581615  -4.288265  -1.357804  16.646488
     7  C   -0.000027   0.120990   0.029482  -0.263842  -0.165032  -1.233838
     8  O    0.000037  -0.007815  -0.020893   0.063120   0.042791  -0.188755
     9  C   -0.000007   0.016583  -0.018991   0.428851   0.221670  -0.813089
    10  C   -0.000037  -0.003135   0.010373  -0.252222  -0.044355   0.222774
    11  O    0.000000   0.000009  -0.000226   0.000827  -0.000229  -0.008414
    12  O   -0.000001  -0.000643  -0.001276   0.023051   0.002849   0.055995
    13  C   -0.026507  -0.021403  -0.329659  -0.793663   0.523948  -2.741702
    14  C    0.002766  -0.043149   0.055177  -0.158756  -0.018866   0.446715
    15  O    0.020656  -0.198696  -0.020019   0.397157  -0.151416  -0.259162
    16  C    0.103960   0.025775   0.196221  -0.491659   0.207067  -0.308530
    17  C   -0.008573  -2.173930  -2.072102   0.320088   0.094508  -0.337957
    18  Cl  -0.000339  -0.012659  -0.020462   0.004949  -0.000894   0.000117
    19  C    0.043469  -0.231879  -0.366579  -0.065867  -0.011672  -0.145963
    20  C   -0.683117  -1.622313  -1.692977   0.064603   0.016787   0.078274
    21  H    0.203187   0.068316  -0.164520   0.007504   0.001428  -0.001108
    22  H   -0.000009  -0.001682  -0.031156   0.096296   0.031135   0.117219
    23  H   -0.000002  -0.002358  -0.007088  -0.054235  -0.014472   0.042777
    24  H   -0.000007   0.004043  -0.020580   0.079181   0.037417  -0.181127
    25  H    0.000000  -0.000223  -0.000092  -0.007710  -0.002015  -0.036514
    26  H    0.000000   0.000005   0.000286  -0.002250  -0.001292   0.030482
    27  H    0.000000   0.000000  -0.000004   0.000163   0.000012   0.001163
    28  H    0.000111   0.007380   0.001129   0.067023   0.007764  -0.064969
    29  H    0.000105  -0.000951  -0.002608   0.025435   0.017982  -0.067331
    30  H    0.000048  -0.007914   0.009249   0.005233  -0.003708   0.066261
    31  H    0.000002   0.003342  -0.000293  -0.000721  -0.015565   0.032066
    32  H   -0.000474   0.025012   0.020307   0.027386  -0.000362  -0.016253
    33  H   -0.000397  -0.003964   0.009853   0.001088   0.000046   0.000107
    34  H   -0.003415   0.012308   0.002146  -0.003236   0.000018  -0.000011
              7          8          9         10         11         12
     1  O   -0.000027   0.000037  -0.000007  -0.000037   0.000000  -0.000001
     2  C    0.120990  -0.007815   0.016583  -0.003135   0.000009  -0.000643
     3  C    0.029482  -0.020893  -0.018991   0.010373  -0.000226  -0.001276
     4  C   -0.263842   0.063120   0.428851  -0.252222   0.000827   0.023051
     5  N   -0.165032   0.042791   0.221670  -0.044355  -0.000229   0.002849
     6  C   -1.233838  -0.188755  -0.813089   0.222774  -0.008414   0.055995
     7  C    7.714698   0.195180  -0.759584   0.013726   0.050800   0.025854
     8  O    0.195180   8.242305  -0.098413   0.039340  -0.000554   0.000824
     9  C   -0.759584  -0.098413   7.331168  -0.309964  -0.203476  -0.190377
    10  C    0.013726   0.039340  -0.309964   5.122814   0.236845   0.481907
    11  O    0.050800  -0.000554  -0.203476   0.236845   8.281695  -0.131135
    12  O    0.025854   0.000824  -0.190377   0.481907  -0.131135   8.186360
    13  C    0.493890   0.036057  -0.022209   0.063266   0.009696  -0.005703
    14  C   -0.274615   0.020737  -0.056161   0.015742  -0.000464   0.003937
    15  O    0.034975  -0.008470   0.013331  -0.011844   0.000007  -0.000740
    16  C   -0.226761   0.012946   0.011065  -0.001478   0.000026   0.001468
    17  C   -0.058851   0.004649   0.005772  -0.001720   0.000004   0.000142
    18  Cl   0.000051  -0.000023   0.000055   0.000005   0.000000   0.000000
    19  C   -0.002618   0.000654   0.001688  -0.000296   0.000000  -0.000001
    20  C    0.020810  -0.000849   0.000025  -0.000302   0.000003  -0.000020
    21  H    0.001557   0.000001  -0.000029  -0.000005   0.000000   0.000000
    22  H   -0.052912   0.008913   0.017488  -0.017881   0.000197   0.001468
    23  H    0.384560  -0.060687  -0.084691   0.013813  -0.000366   0.005702
    24  H    0.049663   0.253772   0.021335  -0.007742   0.000013  -0.000033
    25  H    0.040885   0.002103   0.329313  -0.031787   0.000113   0.005711
    26  H   -0.032122   0.000198   0.355748  -0.003789   0.001617   0.001254
    27  H   -0.005319   0.000002   0.033310  -0.014886   0.248105   0.004757
    28  H   -0.024357  -0.000309   0.020531  -0.003448  -0.000010  -0.000473
    29  H   -0.038114  -0.003358   0.016779  -0.000173  -0.000003  -0.000005
    30  H   -0.014791   0.000577   0.005204  -0.000254   0.000004  -0.000012
    31  H    0.059513  -0.005583  -0.039354   0.000384  -0.000041  -0.000060
    32  H    0.001932  -0.000030   0.000132  -0.000049   0.000000   0.000000
    33  H   -0.000002   0.000000   0.000000   0.000000   0.000000   0.000000
    34  H    0.000002   0.000000   0.000000   0.000000   0.000000   0.000000
             13         14         15         16         17         18
     1  O   -0.026507   0.002766   0.020656   0.103960  -0.008573  -0.000339
     2  C   -0.021403  -0.043149  -0.198696   0.025775  -2.173930  -0.012659
     3  C   -0.329659   0.055177  -0.020019   0.196221  -2.072102  -0.020462
     4  C   -0.793663  -0.158756   0.397157  -0.491659   0.320088   0.004949
     5  N    0.523948  -0.018866  -0.151416   0.207067   0.094508  -0.000894
     6  C   -2.741702   0.446715  -0.259162  -0.308530  -0.337957   0.000117
     7  C    0.493890  -0.274615   0.034975  -0.226761  -0.058851   0.000051
     8  O    0.036057   0.020737  -0.008470   0.012946   0.004649  -0.000023
     9  C   -0.022209  -0.056161   0.013331   0.011065   0.005772   0.000055
    10  C    0.063266   0.015742  -0.011844  -0.001478  -0.001720   0.000005
    11  O    0.009696  -0.000464   0.000007   0.000026   0.000004   0.000000
    12  O   -0.005703   0.003937  -0.000740   0.001468   0.000142   0.000000
    13  C    8.787012  -0.338838  -0.144115   0.195485   0.102223   0.001347
    14  C   -0.338838   5.585921  -0.138254   0.070189   0.017109   0.000039
    15  O   -0.144115  -0.138254   8.748295   0.062246   0.009115  -0.000212
    16  C    0.195485   0.070189   0.062246   9.241729  -0.376710  -0.137249
    17  C    0.102223   0.017109   0.009115  -0.376710   9.430766  -0.060411
    18  Cl   0.001347   0.000039  -0.000212  -0.137249  -0.060411  17.017425
    19  C    0.027193   0.003114  -0.007507  -0.680597   0.614062  -0.089018
    20  C   -0.047561   0.000718   0.035255  -1.719967   0.363528   0.073082
    21  H    0.011691  -0.006849   0.030575  -0.033205  -0.001649  -0.000003
    22  H    0.077152   0.005674   0.000122   0.025134   0.004740   0.000011
    23  H    0.040817  -0.005286  -0.003190   0.007602   0.001307   0.000004
    24  H    0.002966   0.000221   0.002413   0.006997   0.004567   0.000013
    25  H    0.049493  -0.025004  -0.000524  -0.000002   0.000002   0.000000
    26  H   -0.012531   0.004626   0.000053  -0.000028  -0.000006   0.000000
    27  H   -0.000396  -0.000076  -0.000001   0.000002   0.000000   0.000000
    28  H    0.357960  -0.034888  -0.031942  -0.001041  -0.000442   0.000000
    29  H   -0.038743   0.427029   0.006383   0.011680   0.001295   0.000005
    30  H   -0.129749   0.432354   0.000741   0.001169   0.000197   0.000000
    31  H   -0.062802   0.374313   0.012149  -0.004291  -0.000359   0.000000
    32  H    0.003595   0.000415   0.000004   0.343423  -0.096426   0.000402
    33  H   -0.000022  -0.000008   0.000003   0.032299   0.058731  -0.005452
    34  H    0.000162   0.000003   0.000166   0.006389  -0.000211   0.000854
             19         20         21         22         23         24
     1  O    0.043469  -0.683117   0.203187  -0.000009  -0.000002  -0.000007
     2  C   -0.231879  -1.622313   0.068316  -0.001682  -0.002358   0.004043
     3  C   -0.366579  -1.692977  -0.164520  -0.031156  -0.007088  -0.020580
     4  C   -0.065867   0.064603   0.007504   0.096296  -0.054235   0.079181
     5  N   -0.011672   0.016787   0.001428   0.031135  -0.014472   0.037417
     6  C   -0.145963   0.078274  -0.001108   0.117219   0.042777  -0.181127
     7  C   -0.002618   0.020810   0.001557  -0.052912   0.384560   0.049663
     8  O    0.000654  -0.000849   0.000001   0.008913  -0.060687   0.253772
     9  C    0.001688   0.000025  -0.000029   0.017488  -0.084691   0.021335
    10  C   -0.000296  -0.000302  -0.000005  -0.017881   0.013813  -0.007742
    11  O    0.000000   0.000003   0.000000   0.000197  -0.000366   0.000013
    12  O   -0.000001  -0.000020   0.000000   0.001468   0.005702  -0.000033
    13  C    0.027193  -0.047561   0.011691   0.077152   0.040817   0.002966
    14  C    0.003114   0.000718  -0.006849   0.005674  -0.005286   0.000221
    15  O   -0.007507   0.035255   0.030575   0.000122  -0.003190   0.002413
    16  C   -0.680597  -1.719967  -0.033205   0.025134   0.007602   0.006997
    17  C    0.614062   0.363528  -0.001649   0.004740   0.001307   0.004567
    18  Cl  -0.089018   0.073082  -0.000003   0.000011   0.000004   0.000013
    19  C    7.045442   0.086187  -0.003561   0.000305   0.000027   0.000572
    20  C    0.086187  10.240835   0.133801   0.000134  -0.000058   0.000632
    21  H   -0.003561   0.133801   0.295688  -0.000005   0.000000   0.000000
    22  H    0.000305   0.000134  -0.000005   0.517247  -0.004472   0.000149
    23  H    0.000027  -0.000058   0.000000  -0.004472   0.580877  -0.005026
    24  H    0.000572   0.000632   0.000000   0.000149  -0.005026   0.330064
    25  H   -0.000002  -0.000006   0.000000   0.000190   0.004135  -0.000129
    26  H    0.000000   0.000000   0.000000  -0.000093  -0.005520  -0.000037
    27  H    0.000000   0.000000   0.000000   0.000001   0.000005   0.000000
    28  H    0.000179   0.000056  -0.000041  -0.006878  -0.000138   0.000007
    29  H    0.000491  -0.000295   0.000017  -0.000048  -0.000076  -0.000256
    30  H   -0.000133  -0.001109  -0.000059  -0.000100   0.000003   0.000002
    31  H   -0.000004   0.000201  -0.000001  -0.000045  -0.000039   0.000219
    32  H    0.012195   0.002110  -0.000005   0.000003  -0.000002  -0.000010
    33  H    0.246117  -0.008850   0.000002   0.000000   0.000000   0.000000
    34  H    0.003051   0.311491   0.000042   0.000000   0.000000   0.000000
             25         26         27         28         29         30
     1  O    0.000000   0.000000   0.000000   0.000111   0.000105   0.000048
     2  C   -0.000223   0.000005   0.000000   0.007380  -0.000951  -0.007914
     3  C   -0.000092   0.000286  -0.000004   0.001129  -0.002608   0.009249
     4  C   -0.007710  -0.002250   0.000163   0.067023   0.025435   0.005233
     5  N   -0.002015  -0.001292   0.000012   0.007764   0.017982  -0.003708
     6  C   -0.036514   0.030482   0.001163  -0.064969  -0.067331   0.066261
     7  C    0.040885  -0.032122  -0.005319  -0.024357  -0.038114  -0.014791
     8  O    0.002103   0.000198   0.000002  -0.000309  -0.003358   0.000577
     9  C    0.329313   0.355748   0.033310   0.020531   0.016779   0.005204
    10  C   -0.031787  -0.003789  -0.014886  -0.003448  -0.000173  -0.000254
    11  O    0.000113   0.001617   0.248105  -0.000010  -0.000003   0.000004
    12  O    0.005711   0.001254   0.004757  -0.000473  -0.000005  -0.000012
    13  C    0.049493  -0.012531  -0.000396   0.357960  -0.038743  -0.129749
    14  C   -0.025004   0.004626  -0.000076  -0.034888   0.427029   0.432354
    15  O   -0.000524   0.000053  -0.000001  -0.031942   0.006383   0.000741
    16  C   -0.000002  -0.000028   0.000002  -0.001041   0.011680   0.001169
    17  C    0.000002  -0.000006   0.000000  -0.000442   0.001295   0.000197
    18  Cl   0.000000   0.000000   0.000000   0.000000   0.000005   0.000000
    19  C   -0.000002   0.000000   0.000000   0.000179   0.000491  -0.000133
    20  C   -0.000006   0.000000   0.000000   0.000056  -0.000295  -0.001109
    21  H    0.000000   0.000000   0.000000  -0.000041   0.000017  -0.000059
    22  H    0.000190  -0.000093   0.000001  -0.006878  -0.000048  -0.000100
    23  H    0.004135  -0.005520   0.000005  -0.000138  -0.000076   0.000003
    24  H   -0.000129  -0.000037   0.000000   0.000007  -0.000256   0.000002
    25  H    0.494903  -0.021719  -0.000102  -0.000826  -0.000186   0.000031
    26  H   -0.021719   0.458757  -0.000184   0.000012   0.000000  -0.000001
    27  H   -0.000102  -0.000184   0.300598   0.000001   0.000000   0.000000
    28  H   -0.000826   0.000012   0.000001   0.509713   0.003812  -0.003330
    29  H   -0.000186   0.000000   0.000000   0.003812   0.505722  -0.028351
    30  H    0.000031  -0.000001   0.000000  -0.003330  -0.028351   0.518223
    31  H    0.002196   0.000064  -0.000001  -0.001063  -0.023019  -0.025018
    32  H    0.000000   0.000000   0.000000   0.000000   0.000001   0.000000
    33  H    0.000000   0.000000   0.000000   0.000000   0.000000   0.000000
    34  H    0.000000   0.000000   0.000000   0.000000   0.000000   0.000000
             31         32         33         34
     1  O    0.000002  -0.000474  -0.000397  -0.003415
     2  C    0.003342   0.025012  -0.003964   0.012308
     3  C   -0.000293   0.020307   0.009853   0.002146
     4  C   -0.000721   0.027386   0.001088  -0.003236
     5  N   -0.015565  -0.000362   0.000046   0.000018
     6  C    0.032066  -0.016253   0.000107  -0.000011
     7  C    0.059513   0.001932  -0.000002   0.000002
     8  O   -0.005583  -0.000030   0.000000   0.000000
     9  C   -0.039354   0.000132   0.000000   0.000000
    10  C    0.000384  -0.000049   0.000000   0.000000
    11  O   -0.000041   0.000000   0.000000   0.000000
    12  O   -0.000060   0.000000   0.000000   0.000000
    13  C   -0.062802   0.003595  -0.000022   0.000162
    14  C    0.374313   0.000415  -0.000008   0.000003
    15  O    0.012149   0.000004   0.000003   0.000166
    16  C   -0.004291   0.343423   0.032299   0.006389
    17  C   -0.000359  -0.096426   0.058731  -0.000211
    18  Cl   0.000000   0.000402  -0.005452   0.000854
    19  C   -0.000004   0.012195   0.246117   0.003051
    20  C    0.000201   0.002110  -0.008850   0.311491
    21  H   -0.000001  -0.000005   0.000002   0.000042
    22  H   -0.000045   0.000003   0.000000   0.000000
    23  H   -0.000039  -0.000002   0.000000   0.000000
    24  H    0.000219  -0.000010   0.000000   0.000000
    25  H    0.002196   0.000000   0.000000   0.000000
    26  H    0.000064   0.000000   0.000000   0.000000
    27  H   -0.000001   0.000000   0.000000   0.000000
    28  H   -0.001063   0.000000   0.000000   0.000000
    29  H   -0.023019   0.000001   0.000000   0.000000
    30  H   -0.025018   0.000000   0.000000   0.000000
    31  H    0.528745   0.000000   0.000000   0.000000
    32  H    0.000000   0.461289  -0.000127   0.000007
    33  H    0.000000  -0.000127   0.466932  -0.003611
    34  H    0.000000   0.000007  -0.003611   0.470961
 Mulliken atomic charges:
              1
     1  O   -0.564912
     2  C   -0.749876
     3  C    0.270687
     4  C    0.605687
     5  N   -0.388438
     6  C   -0.159649
     7  C   -0.085781
     8  O   -0.528467
     9  C   -0.233704
    10  C    0.484378
    11  O   -0.485043
    12  O   -0.470797
    13  C   -0.068351
    14  C   -0.365587
    15  O   -0.397555
    16  C   -0.581352
    17  C    0.156542
    18  Cl   0.228363
    19  C   -0.479047
    20  C    0.348895
    21  H    0.457230
    22  H    0.211701
    23  H    0.166078
    24  H    0.420700
    25  H    0.197766
    26  H    0.226470
    27  H    0.432850
    28  H    0.198478
    29  H    0.186779
    30  H    0.175230
    31  H    0.165066
    32  H    0.215521
    33  H    0.207255
    34  H    0.202884
 Sum of Mulliken atomic charges =   0.00000
 Mulliken charges with hydrogens summed into heavy atoms:
              1
     1  O   -0.107682
     2  C   -0.749876
     3  C    0.270687
     4  C    0.605687
     5  N   -0.388438
     6  C    0.052052
     7  C    0.080296
     8  O   -0.107768
     9  C    0.190532
    10  C    0.484378
    11  O   -0.052193
    12  O   -0.470797
    13  C    0.130127
    14  C    0.161489
    15  O   -0.397555
    16  C   -0.365831
    17  C    0.156542
    18  Cl   0.228363
    19  C   -0.271792
    20  C    0.551779
 Sum of Mulliken charges with hydrogens summed into heavy atoms =   0.00000
 Electronic spatial extent (au):  <R**2>=           8446.8357
 Charge=              0.0000 electrons
 Dipole moment (field-independent basis, Debye):
    X=             -3.2160    Y=              3.2264    Z=             -0.1911  Tot=              4.5594
 Quadrupole moment (field-independent basis, Debye-Ang):
   XX=           -100.8518   YY=           -128.3999   ZZ=           -132.3828
   XY=             -1.8275   XZ=              4.7241   YZ=             -0.8002
 Traceless Quadrupole moment (field-independent basis, Debye-Ang):
   XX=             19.6930   YY=             -7.8551   ZZ=            -11.8380
   XY=             -1.8275   XZ=              4.7241   YZ=             -0.8002
 Octapole moment (field-independent basis, Debye-Ang**2):
  XXX=           -138.2933  YYY=             -5.7331  ZZZ=             -6.8696  XYY=            -33.5406
  XXY=             41.7596  XXZ=            -47.6482  XZZ=            -11.6996  YZZ=             12.7567
  YYZ=              4.7475  XYZ=              5.3100
 Hexadecapole moment (field-independent basis, Debye-Ang**3):
 XXXX=          -7302.1724 YYYY=          -1697.3263 ZZZZ=           -640.2792 XXXY=            244.4539
 XXXZ=            384.4113 YYYX=            -51.5756 YYYZ=             -1.7839 ZZZX=             58.0618
 ZZZY=             -3.3073 XXYY=          -1764.4991 XXZZ=          -1556.7644 YYZZ=           -400.5222
 XXYZ=            -41.3933 YYXZ=              1.2139 ZZXY=            -50.6606
 N-N= 1.665534983605D+03 E-N=-6.603410471168D+03  KE= 1.385290546712D+03
 D1PCM: PCM CHGder 1st derivatives, ID1Alg=3 FixD1E=F DoIter=F DoCFld=F I1PDM=0.
 Calling FoFJK, ICntrl=      2127 FMM=F ISym2X=0 I1Cent= 0 IOpClX= 0 NMat=1 NMatS=1 NMatT=0.
 ***** Axes restored to original set *****
 -------------------------------------------------------------------
 Center     Atomic                   Forces (Hartrees/Bohr)
 Number     Number              X              Y              Z
 -------------------------------------------------------------------
      1        8          -0.033706116   -0.005778321    0.004289916
      2        6           0.007433315    0.000254681   -0.002064408
      3        6          -0.002998657    0.008122737    0.008024707
      4        6           0.002176601   -0.001705122   -0.009550917
      5        7          -0.013624771   -0.016088645   -0.009605273
      6        6           0.026614637   -0.002383140   -0.005236242
      7        6          -0.004150328   -0.003686592    0.007051857
      8        8           0.028167262    0.010795380   -0.010899875
      9        6          -0.006771656   -0.002471998    0.009276472
     10        6          -0.006938668   -0.007040972    0.007649440
     11        8          -0.041089788    0.013309332   -0.018499862
     12        8           0.012653829    0.020066377   -0.017260479
     13        6           0.009041233    0.008688300   -0.028060749
     14        6           0.000453712   -0.004832674    0.001019194
     15        8          -0.030984780    0.009840605    0.034052285
     16        6          -0.011035876    0.006892428    0.009129000
     17        6           0.022384882    0.017022276    0.007788568
     18       17          -0.004660686   -0.005679616   -0.003507916
     19        6           0.017825908    0.004782233   -0.000698722
     20        6           0.000540352   -0.014605054   -0.012068835
     21        1           0.021239884   -0.002833463   -0.008303306
     22        1           0.003023549   -0.004461000    0.001487695
     23        1           0.002914946   -0.007138779    0.006808890
     24        1          -0.021527820   -0.000985681    0.001303453
     25        1           0.002189767    0.004919262    0.001093338
     26        1           0.000052080   -0.001452786   -0.003970734
     27        1           0.020525218   -0.020418154    0.021440571
     28        1          -0.002444738    0.000441596    0.004920236
     29        1          -0.001805278   -0.003055769   -0.000660465
     30        1           0.000161323   -0.000238095    0.005128800
     31        1           0.003324486   -0.002332622   -0.001752585
     32        1           0.004439625   -0.001352921   -0.002087002
     33        1          -0.004077023    0.000263407    0.001337298
     34        1           0.000653575    0.003142791    0.002425652
 -------------------------------------------------------------------
 Cartesian Forces:  Max     0.041089788 RMS     0.012094218

 GradGradGradGradGradGradGradGradGradGradGradGradGradGradGradGradGradGrad
 Berny optimization.
 Internal  Forces:  Max     0.036005845 RMS     0.007377951
 Search for a local minimum.
 Step number   1 out of a maximum of  192
 All quantities printed in internal units (Hartrees-Bohrs-Radians)
 Mixed Optimization -- RFO/linear search
 Second derivative matrix not updated -- first step.
 ITU=  0
     Eigenvalues ---    0.00230   0.00230   0.00230   0.00344   0.00723
     Eigenvalues ---    0.00816   0.00910   0.01495   0.01554   0.01692
     Eigenvalues ---    0.01844   0.01917   0.01943   0.01963   0.01980
     Eigenvalues ---    0.01998   0.02001   0.02005   0.02119   0.02244
     Eigenvalues ---    0.02385   0.03510   0.03523   0.03608   0.03693
     Eigenvalues ---    0.04239   0.04577   0.05177   0.05216   0.05432
     Eigenvalues ---    0.05704   0.05799   0.07989   0.08319   0.08594
     Eigenvalues ---    0.09684   0.13036   0.13526   0.16000   0.16000
     Eigenvalues ---    0.16000   0.16000   0.16000   0.16000   0.16000
     Eigenvalues ---    0.16000   0.16490   0.16731   0.18052   0.19373
     Eigenvalues ---    0.20271   0.21949   0.22438   0.23507   0.23608
     Eigenvalues ---    0.24601   0.24997   0.25000   0.25000   0.25000
     Eigenvalues ---    0.25000   0.27007   0.27435   0.27941   0.28310
     Eigenvalues ---    0.29251   0.33044   0.33291   0.34543   0.34582
     Eigenvalues ---    0.34727   0.34786   0.34789   0.34823   0.35153
     Eigenvalues ---    0.35200   0.35934   0.35945   0.35980   0.37522
     Eigenvalues ---    0.38691   0.40299   0.41433   0.42955   0.43247
     Eigenvalues ---    0.43862   0.44305   0.44546   0.48036   0.51347
     Eigenvalues ---    0.53305   0.56937   0.57240   0.58819   0.71681
     Eigenvalues ---    0.92427
 RFO step:  Lambda=-2.78201499D-02 EMin= 2.30000000D-03
 Linear search not attempted -- first point.
 Iteration  1 RMS(Cart)=  0.08722510 RMS(Int)=  0.00237157
 Iteration  2 RMS(Cart)=  0.00358652 RMS(Int)=  0.00051512
 Iteration  3 RMS(Cart)=  0.00000972 RMS(Int)=  0.00051509
 Iteration  4 RMS(Cart)=  0.00000001 RMS(Int)=  0.00051509
 Variable       Old X    -DE/DX   Delta X   Delta X   Delta X     New X
                                 (Linear)    (Quad)   (Total)
    R1        2.58456  -0.01381   0.00000  -0.02589  -0.02592   2.55863
    R2        1.79551   0.01983   0.00000   0.03390   0.03397   1.82948
    R3        2.68938  -0.00910   0.00000  -0.02234  -0.02247   2.66691
    R4        2.66314  -0.01303   0.00000  -0.02779  -0.02781   2.63533
    R5        2.81407  -0.01321   0.00000  -0.03810  -0.03817   2.77590
    R6        2.67416  -0.01604   0.00000  -0.03509  -0.03511   2.63905
    R7        2.39484   0.01210   0.00000   0.01667   0.01694   2.41178
    R8        2.58717  -0.00542   0.00000  -0.00956  -0.00934   2.57783
    R9        2.72308   0.01175   0.00000   0.02959   0.02961   2.75269
   R10        2.93390  -0.01004   0.00000  -0.03324  -0.03324   2.90066
   R11        2.91982   0.00457   0.00000   0.01220   0.01185   2.93167
   R12        2.06423   0.00506   0.00000   0.01357   0.01357   2.07780
[...]
 4779275,-0.00607902,-0.00013450,0.00132172,-0.00261725,-0.00001273,-0.
 00001562,-0.00000652,0.00002003,-0.00004602,-0.00003496,0.00000897,0.0
 0001024,0.00000456,0.00003123,0.00002629,0.00001710,-0.00002961,-0.000
 00892,-0.00000796,-0.00001168,0.00001749,-0.00004440,-0.00004362,0.000
 19175,-0.00017924,0.00000986,0.00002537,-0.00012636,-0.00031722,-0.000
 93151,-0.00070706,-0.00004922,-0.00001542,0.00005557,-0.00000113,-0.00
 002455,-0.00001058,-0.00000235,-0.00000378,0.00000280,-0.00078921,-0.0
 0395965,0.00350679,0.00964752,0.05112833,-0.00002340,-0.00002387,0.000
 06678,0.00002877,0.00004051,-0.00005311,0.00003641,0.00000164,-0.00008
 552,0.00061494,0.00091598,-0.00023034,0.00031090,0.00004161,0.00026839
 ,-0.00008400,-0.00051815,0.00058394,0.00031118,0.00010150,0.00012022,0
 .00057363,-0.00089668,-0.00103448,0.00016086,-0.00008326,-0.00004455,-
 0.00004568,0.00001555,-0.00010861,0.00000670,-0.00000514,0.00000959,-0
 .00000597,-0.00004851,0.00005947,-0.01675120,-0.00033168,-0.01362984,-
 0.13182065,-0.00543093,-0.13708679,-0.00042017,-0.00176154,0.00162121,
 0.00001831,0.00002419,0.00002649,-0.00001246,0.00003372,0.00002488,-0.
 00002198,-0.00002336,-0.00000957,-0.00002215,-0.00002390,-0.00001393,0
 .00000972,-0.00000907,0.00001716,0.00002930,-0.00001863,-0.00020368,0.
 00009360,-0.00004912,0.00000539,-0.00002414,0.00002421,0.00003895,-0.0
 0013076,-0.00033635,-0.00004036,-0.00014288,0.00006596,0.00002356,0.00
 000473,-0.00004358,-0.00000208,-0.00000208,-0.00000024,-0.00000489,0.0
 0053238,0.00345754,-0.00113547,0.14367347,0.00400913,0.14831433,0.0000
 8223,0.00006738,-0.00003194,-0.00008670,-0.00011179,-0.00002560,0.0000
 4322,0.00002082,0.00007547,-0.00021466,-0.00050562,-0.00055935,0.00019
 228,0.00030203,0.00026521,0.00050306,-0.00012207,-0.00035732,-0.000376
 24,-0.00022102,-0.00036377,0.00099413,-0.00062421,-0.00032665,-0.00036
 677,-0.00008566,-0.00014944,0.00027943,-0.00013913,0.00031267,-0.00014
 357,0.00004241,-0.00006935,-0.00003591,0.00017098,-0.00014645,-0.00177
 679,0.00137710,0.00250128,-0.04895703,0.00404828,0.00125365,0.00073100
 ,-0.00010104,-0.00073163,0.00000445,-0.00000360,-0.00001947,-0.0000022
 6,-0.00001110,-0.00000605,0.00001492,0.00001411,0.00000677,0.00000935,
 0.00000016,0.00000134,0.00001656,0.00001975,-0.00000848,-0.00014313,0.
 00000830,0.00022426,0.00001754,0.00011977,0.00003237,0.00006012,-0.000
 02496,0.00005246,0.00002125,0.00040325,0.00024418,0.00026508,0.0001705
 3,0.00008874,-0.00001200,0.00004546,0.00001658,0.00001662,-0.00001476,
 0.00001447,0.00002169,0.00021819,0.00039492,0.00194961,-0.02260808,-0.
 01325695,0.04629776,0.00003858,0.00012256,0.00006643,-0.00012939,-0.00
 017777,-0.00006794,-0.00003091,0.00008031,0.00006183,-0.00026188,-0.00
 062547,-0.00119604,-0.00044852,0.00014386,0.00047911,0.00159053,-0.000
 58965,0.00504093,-0.00019576,0.00023835,0.00058018,-0.00004038,0.00022
 126,-0.00036368,-0.00006511,0.00002195,-0.00003107,-0.00027422,0.00005
 891,-0.00006088,0.00017595,-0.00001913,0.00005755,0.00016434,-0.000077
 81,-0.00001772,0.00010509,-0.02561344,-0.01580840,0.00331149,-0.233204
 89,-0.12798404,0.00106748,0.00289042,-0.00012709,-0.00000098,0.0000112
 6,0.00002222,-0.00000704,0.00005156,0.00003033,-0.00001299,-0.00001298
 ,-0.00000537,-0.00003440,-0.00003223,-0.00000856,0.00003118,0.00002711
 ,0.00000350,-0.00020215,-0.00012614,0.00018674,-0.00044323,-0.00131652
 ,-0.00056744,0.00002993,-0.00002078,-0.00015819,0.00012847,0.00003920,
 0.00008831,-0.00002883,-0.00003547,0.00003023,0.00005408,-0.00000538,-
 0.00000985,-0.00001773,0.00001719,-0.00001293,0.00006072,0.00111496,0.
 00002360,-0.00020570,0.00020338,0.00071296,-0.00469844,0.25411072,-0.0
 0001974,-0.00002038,-0.00001506,0.00003152,0.00002908,-0.00000735,-0.0
 0001170,-0.00005191,-0.00002674,0.00010200,0.00039450,0.00040900,0.000
 47872,0.00024195,0.00029802,0.00000416,0.00218734,-0.00323578,-0.00029
 898,0.00069107,-0.00094527,0.00004370,-0.00201241,-0.00081782,0.000244
 44,0.00003355,0.00021606,-0.00011336,0.00016133,-0.00023471,0.00009181
 ,-0.00005660,0.00005204,-0.00002075,-0.00012573,0.00014517,0.00034484,
 0.02132585,0.01113404,0.00212664,-0.13019843,-0.13517379,-0.00173189,-
 0.00106515,0.00126159,-0.00000058,0.00001096,0.00000224,-0.00000103,-0
 .00001416,-0.00000189,-0.00000048,0.00000177,0.00000034,0.00000461,0.0
 0000562,-0.00000149,-0.00000097,-0.00000618,0.00000319,0.00004585,-0.0
 0007596,0.00001873,0.00018165,0.00083200,0.00030636,0.00002660,-0.0000
 9852,0.00019292,0.00023588,0.00017081,0.00015268,-0.00016447,-0.000089
 78,-0.00009943,-0.00004445,-0.00001609,0.00000056,-0.00000463,0.000010
 65,-0.00000787,-0.00010086,-0.00072832,0.00108890,0.00252566,-0.013606
 16,-0.00929545,-0.00218936,0.13721659,0.14455035,-0.00002697,-0.000004
 37,0.00003355,0.00002982,0.00001656,-0.00002274,0.00001934,0.00001211,
 0.00000902,0.00075060,0.00060579,-0.00012514,-0.00006243,-0.00006016,0
 .00005113,-0.00000005,-0.00019330,0.00032424,0.00018841,-0.00104692,0.
 00045221,0.00044862,0.00141601,0.00052117,-0.00074762,0.00077074,-0.00
 006989,0.00017889,-0.00009231,0.00033777,-0.00013387,0.00003616,-0.000
 07469,-0.00002621,0.00014608,-0.00015757,0.00067845,-0.00043199,-0.002
 44752,-0.22495005,-0.00745402,0.13489668,0.00153379,-0.00005241,-0.000
 27538,0.00001323,0.00002071,0.00000671,-0.00000695,0.00002229,0.000016
 46,-0.00001047,-0.00001252,-0.00000604,-0.00001195,-0.00001151,-0.0000
 0407,-0.00000247,-0.00000222,-0.00000111,0.00005990,-0.00003149,-0.000
 13567,0.00000263,-0.00012064,-0.00010700,-0.00004588,0.00010050,-0.000
 12908,-0.00019352,0.00013466,0.00005632,-0.00061775,0.00176110,0.00029
 322,0.00001064,-0.00001025,0.00005410,0.00001052,-0.00001465,0.0000119
 3,-0.00013383,-0.00058152,0.00034284,-0.01918164,-0.00090770,0.0163586
 2,0.00059589,0.00033300,-0.00177920,0.24163184,-0.00008097,0.00009691,
 0.00004123,0.00000695,-0.00007016,-0.00004091,-0.00021378,-0.00012684,
 -0.00026815,0.00126239,0.00191769,0.00203882,0.00041239,-0.00025270,-0
 .00075843,-0.00039508,0.00065919,-0.00043922,-0.00028503,-0.00105770,0
 .00027913,0.00014818,0.00002900,-0.00026127,0.00002568,-0.00062256,-0.
 00052273,0.00060085,-0.00047212,0.00065582,-0.00037565,0.00015113,-0.0
 0017318,-0.00009994,0.00041261,-0.00034974,-0.02127065,0.00233757,0.01
 028846,-0.00544769,-0.04746171,0.00696349,-0.00408964,-0.00557113,0.00
 567762,-0.00000724,0.00009403,0.00002589,-0.00004310,0.00003552,0.0000
 6035,-0.00003138,-0.00003311,-0.00001067,-0.00002902,-0.00004967,-0.00
 002948,0.00003160,0.00001146,0.00001201,0.00008784,-0.00028149,-0.0000
 1210,0.00026609,0.00013148,0.00002802,0.00015234,0.00009480,-0.0000346
 2,-0.00016510,0.00007602,-0.00001367,0.00176244,-0.00126298,-0.0001150
 8,0.00002005,0.00008674,-0.00001126,0.00003205,-0.00004102,0.00003192,
 0.00063463,0.00073859,-0.00037849,-0.00080345,-0.00114722,0.00015645,0
 .02224303,0.00248621,-0.01514156,0.00565161,0.04908317,0.00008637,-0.0
 0005486,-0.00003388,-0.00003060,0.00002879,0.00000800,0.00022402,0.000
 16398,0.00011529,-0.00121574,-0.00152921,-0.00187077,-0.00025842,0.000
 37852,0.00097840,0.00010187,-0.00005137,0.00018820,0.00038316,0.000164
 75,0.00029380,-0.00056915,-0.00009168,-0.00033411,0.00066482,-0.000220
 17,0.00007250,-0.00018964,0.00012471,-0.00036367,0.00008210,-0.0000403
 4,0.00004828,-0.00001565,-0.00014678,0.00017266,0.01406386,-0.00417042
 ,-0.00880522,0.13568211,0.00848588,-0.14717037,0.00302787,0.00486217,-
 0.00234637,-0.00000525,-0.00009101,-0.00001736,0.00003917,-0.00004099,
 -0.00005238,0.00003025,0.00003363,0.00000996,0.00002558,0.00004337,0.0
 0002647,-0.00001612,-0.00000374,-0.00000741,-0.00020543,0.00017901,0.0
 0015494,-0.00014224,-0.00003463,-0.00006327,-0.00007624,0.00004272,0.0
 0001402,-0.00000086,-0.00004607,-0.00013765,-0.00015152,-0.00038952,0.
 00036140,-0.00000583,-0.00012257,-0.00007515,-0.00001491,0.00001317,-0
 .00001069,-0.00065583,-0.00033523,0.00035020,-0.01517707,-0.00125934,0
 .01180025,0.01275719,0.00180836,-0.00996298,-0.14843349,-0.00769290,0.
 15665339,0.00024024,-0.00122733,-0.00079378,-0.00231402,-0.00312423,0.
 00016676,0.01126709,-0.01338997,-0.01077201,-0.00043292,-0.00044622,-0
 .00147532,-0.00124826,-0.00074392,0.00018896,-0.00029617,0.00039492,0.
 00001316,0.00004142,0.00000957,0.00012859,-0.00001467,0.00001619,-0.00
 007419,-0.00000644,-0.00000863,-0.00004235,-0.00006641,0.00001894,-0.0
 0001987,0.00004490,-0.00000643,0.00001401,0.00003313,-0.00001550,0.000
 00203,0.00002418,-0.00004900,0.00010445,0.00001458,0.00001853,0.000004
 07,0.00070099,0.00070021,0.00053935,-0.09658647,0.07796739,0.06659557,
 -0.00658543,0.02018521,0.01648199,0.00101832,0.00138875,-0.00016704,-0
 .00493352,-0.00145068,0.00206204,-0.00066737,-0.00074664,-0.00058741,0
 .00039214,0.00006050,-0.00006884,0.00002114,-0.00001346,0.00000355,-0.
 00000736,0.00000102,-0.00000669,0.00002782,-0.00000697,0.00004607,-0.0
 0000514,-0.00000231,0.00000467,0.00002054,-0.00000223,-0.00000420,-0.0
 0000501,0.00000475,-0.00000251,-0.00000213,0.00003311,0.00000882,0.000
 00258,-0.00000696,0.00000366,-0.00000199,0.00001212,-0.00000579,0.0000
 0108,0.00000564,-0.00000987,0.09939635,0.00038122,-0.00077963,-0.00072
 929,-0.00421738,0.00059714,-0.00238760,0.00841559,-0.01128924,-0.01257
 096,0.00088210,-0.00212150,0.00083408,0.00121264,0.00045806,-0.0004261
 9,-0.00030409,0.00033485,0.00036783,-0.00002901,0.00003819,0.00013263,
 0.00000119,-0.00000162,-0.00008593,-0.00000553,-0.00001948,-0.00003964
 ,-0.00006254,0.00004009,-0.00002961,0.00004107,-0.00001274,0.00001612,
 0.00003236,-0.00003309,0.00000792,0.00008426,0.00007337,0.00004382,0.0
 0003654,0.00001382,0.00001665,0.00042614,0.00045605,0.00023278,0.07791
 859,-0.20438165,-0.13017407,-0.00275422,0.00461288,0.00072225,-0.00003
 858,-0.00025856,0.00183412,-0.00157877,0.00227707,-0.00204307,-0.00015
 587,-0.00006940,0.00069931,0.00030717,0.00003913,-0.00002348,0.0000655
 1,0.00001861,0.00001235,-0.00000197,-0.00000238,-0.00000985,0.00000686
 ,-0.00000170,0.00008590,-0.00000471,-0.00000169,0.00000432,0.00002273,
 -0.00000033,-0.00000335,-0.00000343,0.00000546,-0.00000268,0.00000851,
 0.00006872,0.00001226,-0.00000304,-0.00001209,0.00000445,-0.00000174,0
 .00001722,-0.00000473,0.00000199,0.00000945,-0.00000986,-0.08074704,0.
 20977612,0.00024129,-0.00021663,-0.00012137,-0.00037898,-0.00284133,0.
 00426980,0.00301389,-0.00667943,-0.00097440,0.00024715,0.00109322,-0.0
 0343569,0.00136978,0.00034445,0.00050554,-0.00021538,0.00037480,-0.000
 10121,0.00002163,0.00000919,0.00007295,-0.00001575,-0.00000044,-0.0000
 4231,-0.00000318,-0.00000093,-0.00001754,-0.00001990,-0.00000159,-0.00
 000004,0.00001222,-0.00000086,0.00000162,0.00001057,-0.00000139,-0.000
 00614,0.00023733,-0.00006038,0.00003501,-0.00002315,0.00000371,0.00002
 125,-0.00018243,-0.00003042,0.00006621,0.06674958,-0.13014736,-0.14211
 266,0.00143240,-0.00538161,0.00054781,-0.00112525,0.00140860,-0.001801
 80,0.00189475,-0.00199068,0.00416420,-0.00031099,0.00081132,-0.0004420
 7,0.00005828,0.00004387,-0.00001136,-0.00002627,-0.00001121,-0.0000125
 8,-0.00000063,0.00000011,0.00000172,0.00002520,0.00001319,0.00001860,-
 0.00000167,-0.00000087,0.00000160,0.00000812,-0.00000021,-0.00000108,-
 0.00000161,0.00000151,0.00000064,0.00000682,0.00005721,0.00002187,-0.0
 0000022,-0.00000442,-0.00000107,-0.00000175,0.00000738,-0.00000631,0.0
 0000402,-0.00000566,0.00000335,-0.07297848,0.14313542,0.13968468,-0.00
 101834,-0.00006800,0.00017080,0.00104904,-0.00277386,0.00018621,0.0006
 8473,-0.00006159,-0.00043269,-0.00022244,0.00007900,-0.00012200,0.0000
 2168,-0.00001041,0.00001668,-0.00000613,-0.00002549,0.00000723,0.00000
 017,0.00000769,0.00000837,0.00000010,-0.00000049,-0.00000624,-0.000000
 01,-0.00000085,-0.00000258,-0.00000518,-0.00000035,-0.00000006,0.00000
 344,-0.00000020,0.00000082,0.00000356,-0.00000088,-0.00000107,0.000008
 01,0.00000071,-0.00001011,-0.00000014,-0.00000219,-0.00000121,-0.00001
 711,0.00003535,0.00003425,0.00111844,0.00096542,0.00180045,-0.00629859
 ,-0.00269162,0.00093070,0.00077396,-0.00001896,-0.00085681,-0.32693317
 ,-0.00330888,0.07660998,-0.01101920,0.00122058,0.00516042,0.00006921,-
 0.00013289,-0.00016706,0.00001353,0.00000885,-0.00000349,-0.00000009,0
 .00000025,0.00000054,0.00000170,0.00000069,0.00000555,0.,0.00000003,0.
 00000026,0.00000124,0.00000005,0.,-0.00000054,0.00000036,-0.00000013,-
 0.00000132,0.00000169,0.00000279,0.00000008,-0.00000175,0.00000005,0.0
 0000097,0.00000177,-0.00000032,0.00000007,0.00000028,0.00000040,-0.000
 15815,-0.00005624,-0.00002042,0.34139531,-0.00140400,0.00003866,0.0004
 8113,-0.00280071,-0.00045604,-0.00514271,-0.00043300,-0.00105994,-0.00
 006478,0.00014149,-0.00026254,0.00033076,0.00000842,0.00010776,-0.0000
 8417,-0.00000883,0.00001535,0.00004562,-0.00000430,0.00000302,-0.00000
 660,0.00000308,0.00000014,0.00000413,0.00000022,0.00000031,0.00000142,
 0.00000227,0.00000075,-0.00000023,-0.00000145,-0.00000025,0.00000001,-
 0.00000163,-0.00000027,0.00000079,0.00003656,0.00002328,-0.00001416,0.
 00000126,0.00000005,-0.00000108,-0.00001292,0.00006575,0.00004878,0.00
 091319,-0.00179912,-0.00496450,0.02103270,0.00346001,-0.00591140,0.001
 12649,0.00029202,0.00141238,-0.00475736,-0.05183923,-0.00725170,-0.022
 08392,0.00467393,0.00593155,0.00001910,-0.00035438,-0.00002682,-0.0000
 0108,-0.00000271,0.00000255,-0.00000111,-0.00000012,0.00000170,-0.0000
 0264,-0.00000136,0.00000036,0.00000066,0.00000004,-0.00000041,-0.00000
 066,0.00000023,0.00000012,0.00000033,-0.00000005,-0.00000017,-0.000002
 36,-0.00000032,0.00000008,0.00000008,0.00000048,-0.00000081,0.00000110
 ,0.00000076,-0.00000044,-0.00000085,-0.00000084,0.00000103,0.00104988,
 0.00025331,-0.00004719,0.00602345,0.04751304,-0.00070921,0.00017519,0.
 00013929,0.00023639,-0.00521228,0.00490331,-0.00080307,-0.00013763,-0.
 00069534,0.00009408,0.00029377,-0.00065042,0.00007368,-0.00002201,0.00
 022975,-0.00001813,0.00006900,-0.00003696,0.00000329,-0.00000869,-0.00
 000231,-0.00000453,0.00000172,0.00000465,-0.00000009,0.00000187,0.0000
 0139,0.00000432,-0.00000310,0.00000265,-0.00000277,0.00000105,-0.00000
 178,-0.00000214,0.00000295,-0.00000106,0.00003544,0.00000010,0.0000229
 5,-0.00000621,-0.00000055,0.00000367,-0.00001166,0.00001808,0.00001457
 ,0.00178351,-0.00499754,0.00152864,0.01662617,0.00064796,-0.00045777,-
 0.00009113,0.00174034,-0.00117675,0.07570603,-0.00762710,-0.06476523,-
 0.01040780,-0.00052334,0.00736003,-0.00009101,-0.00001641,-0.00025522,
 -0.00001771,-0.00000705,-0.00000086,-0.00000069,0.00000090,0.00000070,
 0.00000052,-0.00000011,-0.00000871,0.00000023,-0.00000015,-0.00000011,
 -0.00000118,-0.00000018,0.,0.00000017,-0.00000047,0.00000057,0.0000006
 5,0.00000536,0.00000205,0.00000028,-0.00000060,-0.00000156,0.00000122,
 0.00000084,-0.00000041,-0.00000086,-0.00000121,0.00000114,0.00067448,0
 .00025967,-0.00008722,-0.08238072,0.01280307,0.05688271,0.00266524,0.0
 0103464,-0.00085961,-0.00615519,0.02224828,0.01770249,-0.00490215,-0.0
 0137966,0.00178096,0.00061139,0.00120093,0.00060835,-0.00070713,0.0000
 3056,0.00018865,0.00004062,0.00006244,0.00010458,-0.00004913,-0.000023
 56,-0.00007560,0.00000629,-0.00000129,0.00003684,0.00000091,0.00001013
 ,0.00003181,0.00003267,-0.00001388,0.00001231,-0.00002105,0.00000425,-
 0.00000804,-0.00001650,0.00001195,-0.00000226,0.00002125,-0.00000060,-
 0.00003759,-0.00001787,0.00000344,0.00000495,0.00000706,-0.00012532,-0
 .00004526,-0.00125066,-0.00089667,-0.00054262,-0.00074341,-0.00326122,
 0.00009074,-0.00019938,-0.00116370,-0.00066518,0.01089650,-0.01503057,
 -0.01208141,-0.09349106,0.07275161,0.06404577,-0.00005903,0.00008469,-
 0.00014215,-0.00003364,-0.00000978,0.00000282,0.00000031,0.00000139,0.
 00000358,-0.00001064,-0.00000206,-0.00002943,0.00000251,0.00000021,-0.
 00000232,-0.00001392,-0.00000009,0.00000150,0.00000191,-0.00000221,0.0
 0000157,-0.00001311,-0.00001199,0.00000604,-0.00000045,0.00000420,-0.0
 0000274,-0.00000009,-0.00000703,0.00000047,-0.00000204,-0.00000632,0.0
 0000509,0.00008494,0.00011970,-0.00002699,0.00053519,0.00115653,-0.000
 69159,0.09277967,0.00016747,-0.00056942,0.00162349,-0.00225803,0.00393
 012,-0.00012644,-0.00086366,0.00179026,-0.00171813,-0.00026964,0.00011
 558,0.00013333,-0.00002657,-0.00004141,0.00003169,-0.00001067,0.000003
 61,0.00003492,-0.00000755,0.00000659,-0.00000408,0.00000258,-0.0000009
 6,0.00000193,-0.00000032,0.00000017,0.00000203,0.00000216,0.00000108,-
 0.00000040,-0.00000150,-0.00000004,0.00000009,-0.00000050,-0.00000059,
 0.00000066,0.00003573,0.00001412,-0.00001660,0.00000309,-0.00000219,-0
 .00000224,-0.00002293,0.00007860,0.00005460,-0.00029934,-0.00003762,0.
 00070270,-0.00354591,0.00125344,-0.00319951,-0.00010203,-0.00080771,-0
 .00063903,0.00876960,-0.01120517,-0.01193615,0.07415767,-0.20529891,-0
 .13276788,0.00013150,-0.00010152,0.00034870,0.00000222,0.00000144,0.00
 000101,-0.00000055,0.00000028,0.00000133,-0.00000145,0.00000010,-0.000
 00042,0.00000025,0.00000015,-0.00000032,-0.00000069,-0.00000007,0.0000
 0026,0.00000023,-0.00000016,-0.00000029,-0.00000263,0.00000039,0.00000
 266,0.00000109,-0.00000033,-0.00000059,0.00000058,0.00000047,-0.000000
 55,-0.00000048,-0.00000033,0.00000063,0.00012078,-0.00010446,0.0001186
 2,0.00080847,-0.00067171,0.00253653,-0.07678899,0.21164620,-0.00148312
 ,0.00137013,-0.00178987,0.00160719,-0.00672429,0.00015651,0.00203968,-
 0.00159137,0.00313652,-0.00028486,-0.00028119,-0.00008870,0.00011564,0
 .00007014,-0.00008559,-0.00002311,-0.00001179,-0.00001078,0.00001102,0
 .00000399,0.00001082,-0.00000354,0.00000174,-0.00000981,-0.00000074,-0
 .00000141,-0.00000635,-0.00000656,0.00000049,-0.00000001,0.00000409,-0
 .00000023,0.00000059,0.00000338,-0.00000076,-0.00000177,0.00001179,0.0
 0000014,0.00000070,0.00000065,0.00000141,0.00000155,-0.00002453,0.0000
 7615,0.00007506,-0.00008699,0.00086890,-0.00038676,-0.00016531,-0.0032
 3017,0.00545300,0.00004352,-0.00034864,-0.00004976,0.00366761,-0.00557
 989,-0.00149745,0.06500791,-0.13236094,-0.14101058,-0.00007209,0.00034
 051,-0.00041556,0.00001149,0.00000694,-0.00000375,-0.00000036,0.000000
 09,0.00000015,0.00000416,-0.00000127,0.00000761,-0.00000017,-0.0000002
 1,0.00000059,0.00000271,-0.00000008,-0.00000028,-0.00000040,0.00000041
 ,0.00000040,0.00000302,0.00000203,-0.00000284,-0.00000215,-0.00000160,
 0.00000069,0.00000078,0.00000209,0.00000020,-0.00000055,0.00000113,-0.
 00000096,-0.00003388,0.00011842,-0.00024202,-0.00093061,0.00245169,-0.
 00295635,-0.06941571,0.14481746,0.13971480\\0.00000005,-0.00001076,-0.
 00000504,0.00001135,0.00000268,0.00001279,-0.00000112,0.00000657,0.000
 00255,0.00000287,-0.00001326,-0.00001474,-0.00001416,0.00000054,0.0000
 0797,0.00001990,-0.00000028,-0.00000348,-0.00000605,-0.00000083,-0.000
 00091,-0.00000652,0.00000448,0.00000143,0.00001753,-0.00000644,0.00001
 703,-0.00000189,0.00001860,-0.00001452,0.00000477,-0.00000955,0.000013
 46,-0.00000322,-0.00000900,0.00000257,-0.00001308,0.00000660,0.0000126
 1,-0.00000479,-0.00000409,0.00000059,0.00000858,0.00000143,-0.00000817
 ,-0.00001228,-0.00000213,-0.00000819,0.00001125,0.00001025,-0.00000102
 ,-0.00000427,-0.00000361,-0.00001089,-0.00001006,-0.00000222,-0.000005
 75,-0.00000406,-0.00000989,-0.00000954,-0.00000783,0.00000253,0.000002
 86,-0.00000165,-0.00000213,0.00000100,-0.00000123,0.00000505,-0.000001
 55,0.00000941,0.00000436,-0.00000222,-0.00000398,0.00000091,-0.0000012
 7,-0.00000195,0.00000114,-0.00000148,-0.00000272,0.00000148,-0.0000031
 2,0.00000198,-0.00000570,0.00000148,0.00000222,0.00000531,0.00000790,0
 .00000332,0.00000081,0.00000553,0.00000527,0.00000182,0.00000747,0.000
 00149,0.00000246,-0.00000423,0.00000142,0.00000382,-0.00000181,-0.0000
 0056,-0.00000092,0.00000068\\\@


 SEE YOU NOW,
 YOUR BAIT OF FALSEHOOD TAKES THIS CARP OF TRUTH.
 AND THUS DO WE OF WISDOM AND OF REACH...
 BY INDIRECTIONS FIND DIRECTIONS OUT.    -- HAMLET, II, 1
 Job cpu time:  0 days  7 hours 55 minutes 16.5 seconds.
 File lengths (MBytes):  RWF=    867 Int=      0 D2E=      0 Chk=     20 Scr=      1
 Normal termination of Gaussian 09 at Sat Mar 23 00:21:52 2019.
