 Entering Gaussian System, Link 0=g09
 Initial command:
 /home/yuheng/proj/yuheng/g09/l1.exe /home/yuheng/proj/yuheng/g09_scratch/Gau-188044.inp -scrdir=/home/yuheng/proj/yuheng/g09_scratch/
 Entering Link 1 = /home/yuheng/proj/yuheng/g09/l1.exe PID=    188045.
  
 Copyright (c) 1988,1990,1992,1993,1995,1998,2003,2009,2010,
            Gaussian, Inc.  All Rights Reserved.
  
 This is part of the Gaussian(R) 09 program.  It is based on
 the Gaussian(R) 03 system (copyright 2003, Gaussian, Inc.),
 the Gaussian(R) 98 system (copyright 1998, Gaussian, Inc.),
 the Gaussian(R) 94 system (copyright 1995, Gaussian, Inc.),
 the Gaussian 92(TM) system (copyright 1992, Gaussian, Inc.),
 the Gaussian 90(TM) system (copyright 1990, Gaussian, Inc.),
 the Gaussian 88(TM) system (copyright 1988, Gaussian, Inc.),
 the Gaussian 86(TM) system (copyright 1986, Carnegie Mellon
 University), and the Gaussian 82(TM) system (copyright 1983,
 Carnegie Mellon University). Gaussian is a federally registered
 trademark of Gaussian, Inc.
  
 This software contains proprietary and confidential information,
 including trade secrets, belonging to Gaussian, Inc.
  
 This software is provided under written license and may be
 used, copied, transmitted, or stored only in accord with that
 written license.
  
 The following legend is applicable only to US Government
 contracts under FAR:
  
                    RESTRICTED RIGHTS LEGEND
  
 Use, reproduction and disclosure by the US Government is
 subject to restrictions as set forth in subparagraphs (a)
 and (c) of the Commercial Computer Software - Restricted
 Rights clause in FAR 52.227-19.
  
 Gaussian, Inc.
 340 Quinnipiac St., Bldg. 40, Wallingford CT 06492
  
  
 ---------------------------------------------------------------
 Warning -- This program may not be used in any manner that
 competes with the business of Gaussian, Inc. or will provide
 assistance to any competitor of Gaussian, Inc.  The licensee
 of this program is prohibited from giving any competitor of
 Gaussian, Inc. access to this program.  By using this program,
 the user acknowledges that Gaussian, Inc. is engaged in the
 business of creating and licensing software in the field of
 computational chemistry and represents and warrants to the
 licensee that it is not a competitor of Gaussian, Inc. and that
 it will not use this program in any manner prohibited above.
 ---------------------------------------------------------------
  

 Cite this work as:
 Gaussian 09, Revision B.01,
 M. J. Frisch, G. W. Trucks, H. B. Schlegel, G. E. Scuseria, 
 M. A. Robb, J. R. Cheeseman, G. Scalmani, V. Barone, B. Mennucci, 
 G. A. Petersson, H. Nakatsuji, M. Caricato, X. Li, H. P. Hratchian, 
 A. F. Izmaylov, J. Bloino, G. Zheng, J. L. Sonnenberg, M. Hada, 
 M. Ehara, K. Toyota, R. Fukuda, J. Hasegawa, M. Ishida, T. Nakajima, 
 Y. Honda, O. Kitao, H. Nakai, T. Vreven, J. A. Montgomery, Jr., 
 J. E. Peralta, F. Ogliaro, M. Bearpark, J. J. Heyd, E. Brothers, 
 K. N. Kudin, V. N. Staroverov, T. Keith, R. Kobayashi, J. Normand, 
 K. Raghavachari, A. Rendell, J. C. Burant, S. S. Iyengar, J. Tomasi, 
 M. Cossi, N. Rega, J. M. Millam, M. Klene, J. E. Knox, J. B. Cross, 
 V. Bakken, C. Adamo, J. Jaramillo, R. Gomperts, R. E. Stratmann, 
 O. Yazyev, A. J. Austin, R. Cammi, C. Pomelli, J. W. Ochterski, 
 R. L. Martin, K. Morokuma, V. G. Zakrzewski, G. A. Voth, 
 P. Salvador, J. J. Dannenberg, S. Dapprich, A. D. Daniels, 
 O. Farkas, J. B. Foresman, J. V. Ortiz, J. Cioslowski, 
 and D. J. Fox, Gaussian, Inc., Wallingford CT, 2010.
 
 ******************************************
 Gaussian 09:  EM64L-G09RevB.01 12-Aug-2010
                22-Mar-2019 
 ******************************************
 %mem=16gb
 %nprocshared=20
 Will use up to   20 processors via shared memory.
 %chk=1b-conf-16.chk
 ----------------------------------------------------------------------
 # m062x/6-31+G(d,p) opt freq=noraman integral(ultrafinegrid) scrf=(ief
 pcm,read,solvent=methanol)
 ----------------------------------------------------------------------
 1/14=-1,18=20,19=15,26=3,38=1,40=2/1,3;
 2/9=110,12=2,17=6,18=5,40=1/2;
 3/5=1,6=6,7=111,11=2,16=1,25=1,30=1,70=2203,71=1,72=3,74=-55,75=-5/1,2,3;
 4//1;
 5/5=2,38=5,53=3/2;
 6/7=2,8=2,9=2,10=2,28=1/1;
 7//1,2,3,16;
 1/14=-1,18=20,19=15/3(2);
 2/9=110/2;
 99//99;
 2/9=110/2;
 3/5=1,6=6,7=111,11=2,16=1,25=1,30=1,70=2205,71=1,72=3,74=-55,75=-5/1,2,3;
 4/5=5,16=3/1;
 5/5=2,38=5,53=3/2;
 7//1,2,3,16;
 1/14=-1,18=20,19=15/3(-5);
 2/9=110/2;
 6/7=2,8=2,9=2,10=2,19=2,28=1/1;
 99/9=1/99;
 ----------------------------------------------------------------------
 Candidate Structure: 1b, Conformer: 16 geometry optimization and frequ
 ency calculation with methanol solvation
 ----------------------------------------------------------------------
 Symbolic Z-matrix:
 Charge =  0 Multiplicity = 1
 O                    -0.24163   0.40446  -1.07201 
 C                    -1.06409   1.49448  -1.09754 
 C                    -0.57659   2.82784  -0.98682 
 C                     0.86244   3.17168  -0.82182 
 N                     1.77904   2.31606  -0.61924 
 C                     3.0457    2.9986   -0.58109 
 C                     3.98404   2.52971  -1.73655 
 O                     4.50298   1.25755  -1.39512 
 C                     3.43732   2.51774  -3.1985 
 C                     2.37388   1.46883  -3.55854 
 O                     1.61662   1.85803  -4.61698 
 O                     2.23793   0.39547  -2.97681 
 C                     2.66364   4.49146  -0.50585 
 C                     3.47265   5.51406  -1.32004 
 O                     1.30786   4.46127  -0.89069 
 C                    -1.49595   3.89986  -1.03491 
 C                    -2.87339   3.65812  -1.1875 
 Cl                   -3.9785    4.98127  -1.24348 
 C                    -3.3494    2.33924  -1.2943 
 C                    -2.44547   1.26186  -1.24935 
 H                     0.67356   0.66759  -0.98852 
 H                     3.5489    2.7603    0.3588 
 H                     4.85447   3.18616  -1.73127 
 H                     3.76674   0.65464  -1.39146 
 H                     4.27325   2.35823  -3.87963 
 H                     3.03343   3.49535  -3.45229 
 H                     0.98621   1.18069  -4.80984 
 H                     2.68653   4.80072   0.54108 
 H                     3.39823   5.35308  -2.39272 
 H                     3.10731   6.52269  -1.12614 
 H                     4.52675   5.49287  -1.04281 
 H                    -1.15191   4.92074  -0.9534 
 H                    -4.40709   2.15402  -1.41108 
 H                    -2.8134    0.24943  -1.333 
 

 GradGradGradGradGradGradGradGradGradGradGradGradGradGradGradGradGradGrad
 Berny optimization.
 Initialization pass.
                           ----------------------------
                           !    Initial Parameters    !
                           ! (Angstroms and Degrees)  !
 --------------------------                            --------------------------
 ! Name  Definition              Value          Derivative Info.                !
 --------------------------------------------------------------------------------
 ! R1    R(1,2)                  1.3657         estimate D2E/DX2                !
 ! R2    R(1,21)                 0.9559         estimate D2E/DX2                !
 ! R3    R(2,3)                  1.424          estimate D2E/DX2                !
 ! R4    R(2,20)                 1.409          estimate D2E/DX2                !
 ! R5    R(3,4)                  1.4887         estimate D2E/DX2                !
 ! R6    R(3,16)                 1.4131         estimate D2E/DX2                !
 ! R7    R(4,5)                  1.2701         estimate D2E/DX2                !
 ! R8    R(4,15)                 1.3661         estimate D2E/DX2                !
 ! R9    R(5,6)                  1.4394         estimate D2E/DX2                !
 ! R10   R(6,7)                  1.5606         estimate D2E/DX2                !
 ! R11   R(6,13)                 1.5428         estimate D2E/DX2                !
 ! R12   R(6,22)                 1.0924         estimate D2E/DX2                !
 ! R13   R(7,8)                  1.4157         estimate D2E/DX2                !
 ! R14   R(7,9)                  1.5609         estimate D2E/DX2                !
 ! R15   R(7,23)                 1.0902         estimate D2E/DX2                !
 ! R16   R(8,24)                 0.9516         estimate D2E/DX2                !
 ! R17   R(9,10)                 1.5365         estimate D2E/DX2                !
 ! R18   R(9,25)                 1.09           estimate D2E/DX2                !
 ! R19   R(9,26)                 1.0878         estimate D2E/DX2                !
 ! R20   R(10,11)                1.3584         estimate D2E/DX2                !
 ! R21   R(10,12)                1.2284         estimate D2E/DX2                !
 ! R22   R(11,27)                0.9452         estimate D2E/DX2                !
 ! R23   R(13,14)                1.5372         estimate D2E/DX2                !
 ! R24   R(13,15)                1.4097         estimate D2E/DX2                !
 ! R25   R(13,28)                1.0919         estimate D2E/DX2                !
 ! R26   R(14,29)                1.0872         estimate D2E/DX2                !
 ! R27   R(14,30)                1.0901         estimate D2E/DX2                !
 ! R28   R(14,31)                1.0902         estimate D2E/DX2                !
 ! R29   R(16,17)                1.4068         estimate D2E/DX2                !
 ! R30   R(16,32)                1.0804         estimate D2E/DX2                !
 ! R31   R(17,18)                1.7249         estimate D2E/DX2                !
 ! R32   R(17,19)                1.4062         estimate D2E/DX2                !
 ! R33   R(19,20)                1.4071         estimate D2E/DX2                !
 ! R34   R(19,33)                1.0801         estimate D2E/DX2                !
 ! R35   R(20,34)                1.0805         estimate D2E/DX2                !
 ! A1    A(2,1,21)             111.0076         estimate D2E/DX2                !
 ! A2    A(1,2,3)              122.6633         estimate D2E/DX2                !
 ! A3    A(1,2,20)             117.4286         estimate D2E/DX2                !
 ! A4    A(3,2,20)             119.9067         estimate D2E/DX2                !
 ! A5    A(2,3,4)              123.7664         estimate D2E/DX2                !
 ! A6    A(2,3,16)             119.011          estimate D2E/DX2                !
 ! A7    A(4,3,16)             117.2226         estimate D2E/DX2                !
 ! A8    A(3,4,5)              124.0317         estimate D2E/DX2                !
 ! A9    A(3,4,15)             121.845          estimate D2E/DX2                !
 ! A10   A(5,4,15)             114.1207         estimate D2E/DX2                !
 ! A11   A(4,5,6)              108.6543         estimate D2E/DX2                !
 ! A12   A(5,6,7)              111.5331         estimate D2E/DX2                !
 ! A13   A(5,6,13)             104.0168         estimate D2E/DX2                !
 ! A14   A(5,6,22)             108.9491         estimate D2E/DX2                !
 ! A15   A(7,6,13)             118.4073         estimate D2E/DX2                !
 ! A16   A(7,6,22)             107.1287         estimate D2E/DX2                !
 ! A17   A(13,6,22)            106.45           estimate D2E/DX2                !
 ! A18   A(6,7,8)              108.1692         estimate D2E/DX2                !
 ! A19   A(6,7,9)              119.024          estimate D2E/DX2                !
 ! A20   A(6,7,23)             107.191          estimate D2E/DX2                !
 ! A21   A(8,7,9)              110.3275         estimate D2E/DX2                !
 ! A22   A(8,7,23)             104.3142         estimate D2E/DX2                !
 ! A23   A(9,7,23)             106.7862         estimate D2E/DX2                !
 ! A24   A(7,8,24)             106.658          estimate D2E/DX2                !
 ! A25   A(7,9,10)             117.8488         estimate D2E/DX2                !
 ! A26   A(7,9,25)             108.5283         estimate D2E/DX2                !
 ! A27   A(7,9,26)             109.9794         estimate D2E/DX2                !
 ! A28   A(10,9,25)            106.527          estimate D2E/DX2                !
 ! A29   A(10,9,26)            107.5701         estimate D2E/DX2                !
 ! A30   A(25,9,26)            105.6927         estimate D2E/DX2                !
 ! A31   A(9,10,11)            111.8905         estimate D2E/DX2                !
 ! A32   A(9,10,12)            124.2039         estimate D2E/DX2                !
 ! A33   A(11,10,12)           123.8932         estimate D2E/DX2                !
 ! A34   A(10,11,27)           108.9947         estimate D2E/DX2                !
 ! A35   A(6,13,14)            119.1777         estimate D2E/DX2                !
 ! A36   A(6,13,15)            101.779          estimate D2E/DX2                !
 ! A37   A(6,13,28)            108.3991         estimate D2E/DX2                !
 ! A38   A(14,13,15)           112.0743         estimate D2E/DX2                !
 ! A39   A(14,13,28)           107.9622         estimate D2E/DX2                !
 ! A40   A(15,13,28)           106.7378         estimate D2E/DX2                !
 ! A41   A(13,14,29)           112.8323         estimate D2E/DX2                !
 ! A42   A(13,14,30)           110.1755         estimate D2E/DX2                !
 ! A43   A(13,14,31)           111.1767         estimate D2E/DX2                !
 ! A44   A(29,14,30)           106.8301         estimate D2E/DX2                !
 ! A45   A(29,14,31)           108.3134         estimate D2E/DX2                !
 ! A46   A(30,14,31)           107.2655         estimate D2E/DX2                !
 ! A47   A(4,15,13)            108.6656         estimate D2E/DX2                !
 ! A48   A(3,16,17)            120.6883         estimate D2E/DX2                !
 ! A49   A(3,16,32)            120.4718         estimate D2E/DX2                !
 ! A50   A(17,16,32)           118.8398         estimate D2E/DX2                !
 ! A51   A(16,17,18)           119.9361         estimate D2E/DX2                !
 ! A52   A(16,17,19)           120.0557         estimate D2E/DX2                !
 ! A53   A(18,17,19)           120.0082         estimate D2E/DX2                !
 ! A54   A(17,19,20)           119.8844         estimate D2E/DX2                !
 ! A55   A(17,19,33)           120.0341         estimate D2E/DX2                !
 ! A56   A(20,19,33)           120.0815         estimate D2E/DX2                !
 ! A57   A(2,20,19)            120.4537         estimate D2E/DX2                !
 ! A58   A(2,20,34)            119.7944         estimate D2E/DX2                !
 ! A59   A(19,20,34)           119.7519         estimate D2E/DX2                !
 ! D1    D(21,1,2,3)            -1.0343         estimate D2E/DX2                !
 ! D2    D(21,1,2,20)          178.5426         estimate D2E/DX2                !
 ! D3    D(1,2,3,4)             -0.535          estimate D2E/DX2                !
 ! D4    D(1,2,3,16)           179.4246         estimate D2E/DX2                !
 ! D5    D(20,2,3,4)           179.8983         estimate D2E/DX2                !
 ! D6    D(20,2,3,16)           -0.1421         estimate D2E/DX2                !
 ! D7    D(1,2,20,19)         -179.5061         estimate D2E/DX2                !
 ! D8    D(1,2,20,34)            0.4229         estimate D2E/DX2                !
 ! D9    D(3,2,20,19)            0.0829         estimate D2E/DX2                !
 ! D10   D(3,2,20,34)         -179.988          estimate D2E/DX2                !
 ! D11   D(2,3,4,5)             -7.9169         estimate D2E/DX2                !
 ! D12   D(2,3,4,15)           171.4689         estimate D2E/DX2                !
 ! D13   D(16,3,4,5)           172.1229         estimate D2E/DX2                !
 ! D14   D(16,3,4,15)           -8.4914         estimate D2E/DX2                !
 ! D15   D(2,3,16,17)            0.1065         estimate D2E/DX2                !
 ! D16   D(2,3,16,32)         -179.9869         estimate D2E/DX2                !
 ! D17   D(4,3,16,17)         -179.9313         estimate D2E/DX2                !
 ! D18   D(4,3,16,32)           -0.0247         estimate D2E/DX2                !
 ! D19   D(3,4,5,6)            176.9876         estimate D2E/DX2                !
 ! D20   D(15,4,5,6)            -2.4407         estimate D2E/DX2                !
 ! D21   D(3,4,15,13)          171.5292         estimate D2E/DX2                !
 ! D22   D(5,4,15,13)           -9.0285         estimate D2E/DX2                !
 ! D23   D(4,5,6,7)           -117.0508         estimate D2E/DX2                !
 ! D24   D(4,5,6,13)            11.6776         estimate D2E/DX2                !
 ! D25   D(4,5,6,22)           124.9            estimate D2E/DX2                !
 ! D26   D(5,6,7,8)            -76.1486         estimate D2E/DX2                !
 ! D27   D(5,6,7,9)             50.7371         estimate D2E/DX2                !
 ! D28   D(5,6,7,23)           171.8941         estimate D2E/DX2                !
 ! D29   D(13,6,7,8)           163.2251         estimate D2E/DX2                !
 ! D30   D(13,6,7,9)           -69.8891         estimate D2E/DX2                !
 ! D31   D(13,6,7,23)           51.2678         estimate D2E/DX2                !
 ! D32   D(22,6,7,8)            42.9884         estimate D2E/DX2                !
 ! D33   D(22,6,7,9)           169.8741         estimate D2E/DX2                !
 ! D34   D(22,6,7,23)          -68.969          estimate D2E/DX2                !
 ! D35   D(5,6,13,14)         -139.7408         estimate D2E/DX2                !
 ! D36   D(5,6,13,15)          -15.9529         estimate D2E/DX2                !
 ! D37   D(5,6,13,28)           96.3437         estimate D2E/DX2                !
 ! D38   D(7,6,13,14)          -15.3308         estimate D2E/DX2                !
 ! D39   D(7,6,13,15)          108.4571         estimate D2E/DX2                !
 ! D40   D(7,6,13,28)         -139.2464         estimate D2E/DX2                !
 ! D41   D(22,6,13,14)         105.2548         estimate D2E/DX2                !
 ! D42   D(22,6,13,15)        -130.9573         estimate D2E/DX2                !
 ! D43   D(22,6,13,28)         -18.6608         estimate D2E/DX2                !
 ! D44   D(6,7,8,24)            66.2184         estimate D2E/DX2                !
 ! D45   D(9,7,8,24)           -65.5506         estimate D2E/DX2                !
 ! D46   D(23,7,8,24)         -179.9046         estimate D2E/DX2                !
 ! D47   D(6,7,9,10)           -70.0185         estimate D2E/DX2                !
 ! D48   D(6,7,9,25)           168.8915         estimate D2E/DX2                !
 ! D49   D(6,7,9,26)            53.7169         estimate D2E/DX2                !
 ! D50   D(8,7,9,10)            55.8439         estimate D2E/DX2                !
 ! D51   D(8,7,9,25)           -65.2461         estimate D2E/DX2                !
 ! D52   D(8,7,9,26)           179.5793         estimate D2E/DX2                !
 ! D53   D(23,7,9,10)          168.6208         estimate D2E/DX2                !
 ! D54   D(23,7,9,25)           47.5308         estimate D2E/DX2                !
 ! D55   D(23,7,9,26)          -67.6438         estimate D2E/DX2                !
 ! D56   D(7,9,10,11)          155.8632         estimate D2E/DX2                !
 ! D57   D(7,9,10,12)          -25.3801         estimate D2E/DX2                !
 ! D58   D(25,9,10,11)         -82.0195         estimate D2E/DX2                !
 ! D59   D(25,9,10,12)          96.7372         estimate D2E/DX2                !
 ! D60   D(26,9,10,11)          30.9286         estimate D2E/DX2                !
 ! D61   D(26,9,10,12)        -150.3147         estimate D2E/DX2                !
 ! D62   D(9,10,11,27)         179.2547         estimate D2E/DX2                !
 ! D63   D(12,10,11,27)          0.4934         estimate D2E/DX2                !
 ! D64   D(6,13,14,29)          63.1373         estimate D2E/DX2                !
 ! D65   D(6,13,14,30)        -177.5623         estimate D2E/DX2                !
 ! D66   D(6,13,14,31)         -58.7821         estimate D2E/DX2                !
 ! D67   D(15,13,14,29)        -55.4657         estimate D2E/DX2                !
 ! D68   D(15,13,14,30)         63.8347         estimate D2E/DX2                !
 ! D69   D(15,13,14,31)       -177.3851         estimate D2E/DX2                !
 ! D70   D(28,13,14,29)       -172.7345         estimate D2E/DX2                !
 ! D71   D(28,13,14,30)        -53.4341         estimate D2E/DX2                !
 ! D72   D(28,13,14,31)         65.3461         estimate D2E/DX2                !
 ! D73   D(6,13,15,4)           15.0662         estimate D2E/DX2                !
 ! D74   D(14,13,15,4)         143.526          estimate D2E/DX2                !
 ! D75   D(28,13,15,4)         -98.4745         estimate D2E/DX2                !
 ! D76   D(3,16,17,18)         179.988          estimate D2E/DX2                !
 ! D77   D(3,16,17,19)          -0.0104         estimate D2E/DX2                !
 ! D78   D(32,16,17,18)          0.0799         estimate D2E/DX2                !
 ! D79   D(32,16,17,19)       -179.9185         estimate D2E/DX2                !
 ! D80   D(16,17,19,20)         -0.0509         estimate D2E/DX2                !
 ! D81   D(16,17,19,33)        179.9767         estimate D2E/DX2                !
 ! D82   D(18,17,19,20)        179.9506         estimate D2E/DX2                !
 ! D83   D(18,17,19,33)         -0.0217         estimate D2E/DX2                !
 ! D84   D(17,19,20,2)           0.0143         estimate D2E/DX2                !
 ! D85   D(17,19,20,34)       -179.9148         estimate D2E/DX2                !
 ! D86   D(33,19,20,2)         179.9866         estimate D2E/DX2                !
 ! D87   D(33,19,20,34)          0.0575         estimate D2E/DX2                !
 --------------------------------------------------------------------------------
 Trust Radius=3.00D-01 FncErr=1.00D-07 GrdErr=1.00D-06
 Number of steps in this run=    191 maximum allowed number of steps=    204.
 GradGradGradGradGradGradGradGradGradGradGradGradGradGradGradGradGradGrad

                          Input orientation:                          
 ---------------------------------------------------------------------
 Center     Atomic      Atomic             Coordinates (Angstroms)
 Number     Number       Type             X           Y           Z
 ---------------------------------------------------------------------
      1          8           0       -0.241632    0.404455   -1.072013
      2          6           0       -1.064091    1.494476   -1.097542
      3          6           0       -0.576590    2.827835   -0.986818
      4          6           0        0.862439    3.171681   -0.821824
      5          7           0        1.779037    2.316063   -0.619241
      6          6           0        3.045699    2.998596   -0.581094
      7          6           0        3.984039    2.529711   -1.736554
      8          8           0        4.502977    1.257555   -1.395123
      9          6           0        3.437322    2.517741   -3.198503
     10          6           0        2.373883    1.468832   -3.558541
     11          8           0        1.616622    1.858027   -4.616980
     12          8           0        2.237928    0.395469   -2.976809
     13          6           0        2.663638    4.491458   -0.505850
     14          6           0        3.472653    5.514057   -1.320044
     15          8           0        1.307859    4.461271   -0.890694
     16          6           0       -1.495953    3.899858   -1.034906
     17          6           0       -2.873390    3.658122   -1.187500
     18         17           0       -3.978498    4.981270   -1.243484
     19          6           0       -3.349399    2.339237   -1.294302
     20          6           0       -2.445474    1.261857   -1.249354
     21          1           0        0.673563    0.667585   -0.988523
     22          1           0        3.548904    2.760302    0.358804
     23          1           0        4.854467    3.186157   -1.731274
     24          1           0        3.766737    0.654638   -1.391462
     25          1           0        4.273255    2.358233   -3.879626
     26          1           0        3.033427    3.495348   -3.452289
     27          1           0        0.986209    1.180689   -4.809838
     28          1           0        2.686531    4.800720    0.541083
     29          1           0        3.398228    5.353081   -2.392723
     30          1           0        3.107312    6.522686   -1.126142
     31          1           0        4.526751    5.492866   -1.042808
     32          1           0       -1.151908    4.920736   -0.953399
     33          1           0       -4.407093    2.154019   -1.411075
     34          1           0       -2.813404    0.249430   -1.333002
 ---------------------------------------------------------------------
                    Distance matrix (angstroms):
                    1          2          3          4          5
     1  O    0.000000
     2  C    1.365737   0.000000
     3  C    2.447902   1.423996   0.000000
     4  C    2.989834   2.569155   1.488710   0.000000
     5  N    2.818218   2.997858   2.438443   1.270147   0.000000
     6  C    4.216292   4.406753   3.648938   2.203301   1.439354
     7  C    4.776466   5.192655   4.631449   3.315606   2.481142
     8  O    4.831511   5.580048   5.332400   4.152838   3.023621
     9  C    4.745802   5.071866   4.593386   3.564585   3.072975
    10  C    3.762531   4.228101   4.143180   3.560025   3.116268
    11  O    4.258259   4.439013   4.350722   4.086280   4.027169
    12  O    3.126747   3.955097   4.218765   3.774027   3.075287
    13  C    5.046259   4.819540   3.673969   2.255209   2.351110
    14  C    6.321825   6.065359   4.870646   3.542339   3.686004
    15  O    4.346442   3.804051   2.495697   1.366084   2.213055
    16  C    3.713831   2.444645   1.413073   2.477430   3.661522
    17  C    4.186387   2.821882   2.450498   3.785071   4.875358
    18  Cl   5.911075   4.546735   4.034370   5.185275   6.375125
    19  C    3.667562   2.444375   2.832268   4.319233   5.172727
    20  C    2.371394   1.409034   2.452334   3.843501   4.399419
    21  H    0.955924   1.927453   2.495910   2.516736   2.018891
    22  H    4.686728   5.000298   4.339926   2.963142   2.070350
    23  H    5.843177   6.188112   5.493541   4.094337   3.384073
    24  H    4.028854   4.912089   4.873501   3.885221   2.703259
    25  H    5.664287   6.080570   5.666556   4.652474   4.105242
    26  H    5.093657   5.132054   4.422255   3.425974   3.315172
    27  H    4.010171   4.252450   4.446449   4.459106   4.413474
    28  H    5.522985   5.261512   4.107885   2.799749   2.888497
    29  H    6.283451   6.039753   4.914531   3.695464   3.871756
    30  H    6.975035   6.533324   5.219432   4.044910   4.440376
    31  H    6.973540   6.873691   5.757570   4.343261   4.221542
    32  H    4.608629   3.430415   2.170793   2.670973   3.935279
    33  H    4.530674   3.421836   3.912387   5.399150   6.238707
    34  H    2.589625   2.160018   3.430940   4.723629   5.086348
                    6          7          8          9         10
     6  C    0.000000
     7  C    1.560584   0.000000
     8  O    2.411955   1.415716   0.000000
     9  C    2.689874   1.560877   2.444559   0.000000
    10  C    3.414192   2.652867   3.042705   1.536470   0.000000
    11  O    4.430749   3.788493   4.367147   2.400468   1.358385
    12  O    3.628803   3.023595   2.894023   2.447802   1.228415
    13  C    1.542812   2.665810   3.825193   3.427029   4.305711
    14  C    2.656291   3.056357   4.380070   3.536632   4.752053
    15  O    2.292457   3.407102   4.552694   3.692953   4.148314
    16  C    4.652400   5.692093   6.564959   5.561349   5.220560
    17  C    5.986511   6.971306   7.759937   6.720840   6.160252
    18  Cl   7.328649   8.345972   9.264150   8.055151   7.619019
    19  C    6.468439   7.349230   7.927169   7.051059   6.216135
    20  C    5.797915   6.571412   6.949981   6.323268   5.348026
    21  H    3.350618   3.871216   3.895870   3.993176   3.184035
    22  H    1.092432   2.152450   2.498953   3.567313   4.288841
    23  H    2.151682   1.090227   1.988982   2.146588   3.527238
    24  H    2.582776   1.918908   0.951615   2.616307   2.701700
    25  H    3.577327   2.169287   2.727090   1.090025   2.121731
    26  H    2.913876   2.186290   3.376274   1.087775   2.133789
    27  H    5.042674   4.500213   4.902432   3.223672   1.890611
    28  H    2.153122   3.468233   4.427458   4.445243   5.292083
    29  H    2.991634   2.957220   4.357638   2.947874   4.182799
    30  H    3.566523   4.133413   5.453608   4.521413   5.656494
    31  H    2.937359   3.091295   4.250006   3.832133   5.211200
    32  H    4.631753   5.719116   6.752166   5.645875   5.579750
    33  H    7.546276   8.405842   8.955068   8.053697   7.145819
    34  H    6.515548   7.181070   7.385771   6.906295   5.774765
                   11         12         13         14         15
    11  O    0.000000
    12  O    2.283694   0.000000
    13  C    4.993255   4.802499   0.000000
    14  C    5.261292   5.519906   1.537246   0.000000
    15  O    4.556031   4.663438   1.409664   2.445206   0.000000
    16  C    5.166087   5.476641   4.234630   5.232016   2.863100
    17  C    5.929746   6.322349   5.640725   6.613193   4.268019
    18  Cl   7.241581   7.916940   6.700895   7.470567   5.323573
    19  C    5.994424   6.150389   6.435086   7.524662   5.133808
    20  C    5.310080   5.066457   6.089840   7.287690   4.944936
    21  H    3.933473   2.544517   4.337669   5.606523   3.847591
    22  H    5.413524   4.293880   2.127962   3.226067   3.078445
    23  H    4.535953   4.023130   2.829347   2.738182   3.861466
    24  H    4.058954   2.217600   4.089294   4.868833   4.559310
    25  H    2.802070   2.968177   4.303938   4.141455   4.706385
    26  H    2.458589   3.235452   3.132169   2.968935   3.236103
    27  H    0.945199   2.354435   5.683245   6.094189   5.121071
    28  H    6.034050   5.655355   1.091895   2.142576   2.016419
    29  H    4.509639   5.124975   2.200524   1.087241   2.724162
    30  H    6.013913   6.459380   2.169676   1.090140   2.746434
    31  H    5.869890   5.912912   2.182277   1.090152   3.383577
    32  H    5.519671   6.005266   3.865614   4.676860   2.503097
    33  H    6.830123   7.049846   7.501886   8.566711   6.185053
    34  H    5.744321   5.314074   6.976888   8.199450   5.909319
                   16         17         18         19         20
    16  C    0.000000
    17  C    1.406789   0.000000
    18  Cl   2.715877   1.724853   0.000000
    19  C    2.436819   1.406218   2.716374   0.000000
    20  C    2.811873   2.434959   4.022963   1.407071   0.000000
    21  H    3.893140   4.643682   6.349374   4.367167   3.185841
    22  H    5.356454   6.666558   8.010107   7.106099   6.384675
    23  H    6.428229   7.761328   9.026718   8.259034   7.564676
    24  H    6.193100   7.290665   8.873010   7.313461   6.243435
    25  H    6.614590   7.746728   9.051022   8.049169   7.298061
    26  H    5.150015   6.328211   7.500258   6.836225   6.313459
    27  H    5.273056   5.844272   7.198028   5.700765   4.945714
    28  H    4.559437   5.933486   6.902166   6.772000   6.485884
    29  H    5.282853   6.607469   7.474964   7.471295   7.224559
    30  H    5.298830   6.631613   7.252478   7.695365   7.650159
    31  H    6.229823   7.625569   8.522984   8.487777   8.158187
    32  H    1.080371   2.147673   2.842081   3.407245   3.892081
    33  H    3.415288   2.159758   2.864460   1.080120   2.161031
    34  H    3.892321   3.412323   4.873989   2.157796   1.080453
                   21         22         23         24         25
    21  H    0.000000
    22  H    3.802938   0.000000
    23  H    4.937088   2.500855   0.000000
    24  H    3.119335   2.746762   2.776188   0.000000
    25  H    4.916762   4.318638   2.374591   3.057737   0.000000
    26  H    4.431179   3.915410   2.524615   3.585301   1.735748
    27  H    3.868265   5.981425   5.335061   4.437720   3.613388
    28  H    4.845053   2.222660   3.531341   4.700167   5.293969
    29  H    5.599058   3.783663   2.693271   4.818059   3.456250
    30  H    6.342261   4.068858   3.814598   5.910941   5.126770
    31  H    6.175220   3.222981   2.429463   4.909952   4.235295
    32  H    4.628485   5.337320   6.300031   6.525685   6.675449
    33  H    5.310471   8.173001   9.324394   8.310236   9.026843
    34  H    3.528804   7.045967   8.220659   6.592865   7.820043
                   26         27         28         29         30
    26  H    0.000000
    27  H    3.375157   0.000000
    28  H    4.215608   6.680425   0.000000
    29  H    2.169546   5.391580   3.069012   0.000000
    30  H    3.818533   6.826831   2.433488   1.748381   0.000000
    31  H    3.467808   6.732074   2.524715   1.765042   1.755643
    32  H    5.078702   5.782008   4.120861   4.791901   4.553794
    33  H    7.831159   6.448773   7.818916   8.492389   8.696707
    34  H    7.015183   5.233803   7.380767   8.108923   8.628523
                   31         32         33         34
    31  H    0.000000
    32  H    5.708108   0.000000
    33  H    9.544479   4.296559   0.000000
    34  H    9.025282   4.972501   2.484633   0.000000
 Stoichiometry    C13H14ClNO5
 Framework group  C1[X(C13H14ClNO5)]
 Deg. of freedom    96
 Full point group                 C1      NOp   1
 Largest Abelian subgroup         C1      NOp   1
 Largest concise Abelian subgroup C1      NOp   1
                         Standard orientation:                         
 ---------------------------------------------------------------------
 Center     Atomic      Atomic             Coordinates (Angstroms)
 Number     Number       Type             X           Y           Z
 ---------------------------------------------------------------------
      1          8           0        0.472363   -2.221849   -1.300810
      2          6           0        1.462790   -1.402736   -0.838917
      3          6           0        1.234508   -0.040405   -0.492935
      4          6           0       -0.088918    0.631725   -0.607134
      5          7           0       -1.107523    0.107359   -1.155547
      6          6           0       -2.219646    1.011027   -1.020246
      7          6           0       -3.365756    0.384961   -0.165907
      8          8           0       -4.051304   -0.557414   -0.969775
      9          6           0       -3.021450   -0.236482    1.223914
     10          6           0       -2.213089   -1.542936    1.245573
     11          8           0       -1.541327   -1.703515    2.415257
     12          8           0       -2.193752   -2.358318    0.326996
     13          6           0       -1.575696    2.325848   -0.533582
     14          6           0       -2.290733    3.156454    0.544352
     15          8           0       -0.306792    1.884165   -0.107024
     16          6           0        2.313491    0.734290   -0.010837
     17          6           0        3.596257    0.172890    0.124795
     18         17           0        4.899512    1.136395    0.714967
     19          6           0        3.816356   -1.172434   -0.220325
     20          6           0        2.751104   -1.956334   -0.700519
     21          1           0       -0.364276   -1.760899   -1.337538
     22          1           0       -2.632171    1.216665   -2.010672
     23          1           0       -4.099859    1.170729    0.013693
     24          1           0       -3.437678   -1.263008   -1.146332
     25          1           0       -3.952661   -0.439223    1.752966
     26          1           0       -2.488542    0.489549    1.833949
     27          1           0       -1.069213   -2.521941    2.389035
     28          1           0       -1.409776    2.969598   -1.399776
     29          1           0       -2.383686    2.629191    1.490632
     30          1           0       -1.732675    4.070941    0.746067
     31          1           0       -3.287920    3.451438    0.217194
     32          1           0        2.166801    1.770137    0.258803
     33          1           0        4.801477   -1.603010   -0.116405
     34          1           0        2.922315   -2.990149   -0.963751
 ---------------------------------------------------------------------
 Rotational constants (GHZ):      0.5068827      0.1929291      0.1651145
 Standard basis: 6-31+G(d,p) (6D, 7F)
 There are   454 symmetry adapted basis functions of A   symmetry.
 Integral buffers will be    131072 words long.
 Raffenetti 2 integral format.
 Two-electron integral symmetry is turned on.
   454 basis functions,   762 primitive gaussians,   454 cartesian basis functions
    78 alpha electrons       78 beta electrons
       nuclear repulsion energy      1741.3026184591 Hartrees.
 NAtoms=   34 NActive=   34 NUniq=   34 SFac= 1.00D+00 NAtFMM=   50 NAOKFM=F Big=F
 Using the following non-standard input for PCM:
 radii=UA0
 --- end of non-standard input.
 ------------------------------------------------------------------------------
 United Atom Topological Model (UA0  parameters set).
  Nord Group  Hybr  Charge Alpha Radius          Bonded to
    1   OH    *     0.00   1.10  1.850   C2   [s]
    2   C     *     0.00   1.10  1.925   O1   [s]  C3   [s]  C20  [s]
    3   C     *     0.00   1.10  1.925   C2   [s]  C4   [s]  C16  [s]
    4   C     *     0.00   1.10  1.925   C3   [s]  N5   [d]  O15  [s]
    5   N     *     0.00   1.10  1.830   C4   [d]  C6   [s]
    6   CH    *     0.00   1.10  2.125   N5   [s]  C7   [s]  C13  [s]
    7   CH    *     0.00   1.10  2.125   C6   [s]  O8   [s]  C9   [s]
    8   OH    *     0.00   1.10  1.850   C7   [s]
    9   CH2   *     0.00   1.10  2.325   C7   [s]  C10  [s]
   10   C     *     0.00   1.10  1.925   C9   [s]  O11  [s]  O12  [d]
   11   OH    *     0.00   1.10  1.850   C10  [s]
   12   O     *     0.00   1.10  1.750   C10  [d]
   13   CH    *     0.00   1.10  2.125   C6   [s]  C14  [s]  O15  [s]
   14   CH3   *     0.00   1.10  2.525   C13  [s]
   15   O     *     0.00   1.10  1.750   C4   [s]  C13  [s]
   16   CH    *     0.00   1.10  2.125   C3   [s]  C17  [s]
   17   C     *     0.00   1.10  1.925   C16  [s] Cl18  [s]  C19  [s]
   18  Cl     *     0.00   1.10  1.973   C17  [s]
   19   CH    *     0.00   1.10  2.125   C17  [s]  C20  [s]
   20   CH    *     0.00   1.10  2.125   C2   [s]  C19  [s]
 ------------------------------------------------------------------------------
 Polarizable Continuum Model (PCM)
 =================================
 Model                : PCM.
 Atomic radii         : UA0 (Simple United Atom Topological Model).
 Polarization charges : Total charges.
 Charge compensation  : None.
 Solution method      : Matrix inversion.
 Cavity type          : Scaled VdW (van der Waals Surface) (Alpha=1.100).
 Cavity algorithm     : GePol (No added spheres)
                        Default sphere list used, NSphG=   20.
                        Lebedev-Laikov grids with approx.  5.0 points / Ang**2.
                        Smoothing algorithm: Karplus/York (Gamma=1.0000).
                        Polarization charges: spherical gaussians, with
                                              point-specific exponents (IZeta= 3).
                        Self-potential: point-specific (ISelfS= 7).
                        Self-field    : sphere-specific E.n sum rule (ISelfD= 2).
 1st derivatives      : Analytical E(r).r(x)/FMM algorithm (CHGder, D1EAlg=3).
                        Cavity 1st derivative terms included.
 Solvent              : Methanol, Eps=  32.613000 Eps(inf)=   1.765709
 ------------------------------------------------------------------------------
 Spheres list:
 ISph  on   Nord    Re0     Alpha      Xe            Ye            Ze
    1   O      1    1.850   1.100      0.472363     -2.221849     -1.300810
    2   C      2    1.925   1.100      1.462790     -1.402736     -0.838917
    3   C      3    1.925   1.100      1.234508     -0.040405     -0.492935
    4   C      4    1.925   1.100     -0.088918      0.631725     -0.607134
    5   N      5    1.830   1.100     -1.107523      0.107359     -1.155547
    6   C      6    2.125   1.100     -2.219646      1.011027     -1.020246
    7   C      7    2.125   1.100     -3.365756      0.384961     -0.165907
    8   O      8    1.850   1.100     -4.051304     -0.557414     -0.969775
    9   C      9    2.325   1.100     -3.021450     -0.236482      1.223914
   10   C     10    1.925   1.100     -2.213089     -1.542936      1.245573
   11   O     11    1.850   1.100     -1.541327     -1.703515      2.415257
   12   O     12    1.750   1.100     -2.193752     -2.358318      0.326996
   13   C     13    2.125   1.100     -1.575696      2.325848     -0.533582
   14   C     14    2.525   1.100     -2.290733      3.156454      0.544352
   15   O     15    1.750   1.100     -0.306792      1.884165     -0.107024
   16   C     16    2.125   1.100      2.313491      0.734290     -0.010837
   17   C     17    1.925   1.100      3.596257      0.172890      0.124795
   18  Cl     18    1.973   1.100      4.899512      1.136395      0.714967
   19   C     19    2.125   1.100      3.816356     -1.172434     -0.220325
   20   C     20    2.125   1.100      2.751104     -1.956334     -0.700519
 ------------------------------------------------------------------------------
 One-electron integrals computed using PRISM.
 NBasis=   454 RedAO= T  NBF=   454
 NBsUse=   453 1.00D-06 NBFU=   453
 Harris functional with IExCor= 1009 diagonalized for initial guess.
 ExpMin= 4.38D-02 ExpMax= 2.52D+04 ExpMxC= 3.78D+03 IAcc=3 IRadAn=         5 AccDes= 0.00D+00
 HarFok:  IExCor= 1009 AccDes= 0.00D+00 IRadAn=         5 IDoV= 1
 ScaDFX=  1.000000  1.000000  1.000000  1.000000
 FoFCou: FMM=F IPFlag=           0 FMFlag=      100000 FMFlg1=           0
         NFxFlg=           0 DoJE=T BraDBF=F KetDBF=T FulRan=T
         Omega=  0.000000  0.000000  1.000000  0.000000  0.000000 ICntrl=     500 IOpCl=  0
         NMat0=    1 NMatS0=    1 NMatT0=    0 NMatD0=    1 NMtDS0=    0 NMtDT0=    0
         I1Cent=           4 NGrid=           0.
 Petite list used in FoFCou.
 Initial guess orbital symmetries:
       Occupied  (A) (A) (A) (A) (A) (A) (A) (A) (A) (A) (A) (A)
                 (A) (A) (A) (A) (A) (A) (A) (A) (A) (A) (A) (A)
                 (A) (A) (A) (A) (A) (A) (A) (A) (A) (A) (A) (A)
                 (A) (A) (A) (A) (A) (A) (A) (A) (A) (A) (A) (A)
                 (A) (A) (A) (A) (A) (A) (A) (A) (A) (A) (A) (A)
                 (A) (A) (A) (A) (A) (A) (A) (A) (A) (A) (A) (A)
                 (A) (A) (A) (A) (A) (A)
       Virtual   (A) (A) (A) (A) (A) (A) (A) (A) (A) (A) (A) (A)
                 (A) (A) (A) (A) (A) (A) (A) (A) (A) (A) (A) (A)
                 (A) (A) (A) (A) (A) (A) (A) (A) (A) (A) (A) (A)
                 (A) (A) (A) (A) (A) (A) (A) (A) (A) (A) (A) (A)
                 (A) (A) (A) (A) (A) (A) (A) (A) (A) (A) (A) (A)
                 (A) (A) (A) (A) (A) (A) (A) (A) (A) (A) (A) (A)
                 (A) (A) (A) (A) (A) (A) (A) (A) (A) (A) (A) (A)
                 (A) (A) (A) (A) (A) (A) (A) (A) (A) (A) (A) (A)
                 (A) (A) (A) (A) (A) (A) (A) (A) (A) (A) (A) (A)
                 (A) (A) (A) (A) (A) (A) (A) (A) (A) (A) (A) (A)
                 (A) (A) (A) (A) (A) (A) (A) (A) (A) (A) (A) (A)
                 (A) (A) (A) (A) (A) (A) (A) (A) (A) (A) (A) (A)
                 (A) (A) (A) (A) (A) (A) (A) (A) (A) (A) (A) (A)
                 (A) (A) (A) (A) (A) (A) (A) (A) (A) (A) (A) (A)
                 (A) (A) (A) (A) (A) (A) (A) (A) (A) (A) (A) (A)
                 (A) (A) (A) (A) (A) (A) (A) (A) (A) (A) (A) (A)
                 (A) (A) (A) (A) (A) (A) (A) (A) (A) (A) (A) (A)
                 (A) (A) (A) (A) (A) (A) (A) (A) (A) (A) (A) (A)
                 (A) (A) (A) (A) (A) (A) (A) (A) (A) (A) (A) (A)
                 (A) (A) (A) (A) (A) (A) (A) (A) (A) (A) (A) (A)
                 (A) (A) (A) (A) (A) (A) (A) (A) (A) (A) (A) (A)
                 (A) (A) (A) (A) (A) (A) (A) (A) (A) (A) (A) (A)
                 (A) (A) (A) (A) (A) (A) (A) (A) (A) (A) (A) (A)
                 (A) (A) (A) (A) (A) (A) (A) (A) (A) (A) (A) (A)
                 (A) (A) (A) (A) (A) (A) (A) (A) (A) (A) (A) (A)
                 (A) (A) (A) (A) (A) (A) (A) (A) (A) (A) (A) (A)
                 (A) (A) (A) (A) (A) (A) (A) (A) (A) (A) (A) (A)
                 (A) (A) (A) (A) (A) (A) (A) (A) (A) (A) (A) (A)
                 (A) (A) (A) (A) (A) (A) (A) (A) (A) (A) (A) (A)
                 (A) (A) (A) (A) (A) (A) (A) (A) (A) (A) (A) (A)
                 (A) (A) (A) (A) (A) (A) (A) (A) (A) (A) (A) (A)
                 (A) (A) (A)
 The electronic state of the initial guess is 1-A.
 Requested convergence on RMS density matrix=1.00D-08 within 128 cycles.
 Requested convergence on MAX density matrix=1.00D-06.
 Requested convergence on             energy=1.00D-06.
 No special actions if energy rises.
 Error on total polarization charges =  0.01452
 SCF Done:  E(RM062X) =  -1394.56096763     A.U. after   16 cycles
             Convg  =    0.5709D-08             -V/T =  2.0067

 **********************************************************************

            Population analysis using the SCF density.

 **********************************************************************

 Orbital symmetries:
       Occupied  (A) (A) (A) (A) (A) (A) (A) (A) (A) (A) (A) (A)
                 (A) (A) (A) (A) (A) (A) (A) (A) (A) (A) (A) (A)
                 (A) (A) (A) (A) (A) (A) (A) (A) (A) (A) (A) (A)
                 (A) (A) (A) (A) (A) (A) (A) (A) (A) (A) (A) (A)
                 (A) (A) (A) (A) (A) (A) (A) (A) (A) (A) (A) (A)
                 (A) (A) (A) (A) (A) (A) (A) (A) (A) (A) (A) (A)
                 (A) (A) (A) (A) (A) (A)
       Virtual   (A) (A) (A) (A) (A) (A) (A) (A) (A) (A) (A) (A)
                 (A) (A) (A) (A) (A) (A) (A) (A) (A) (A) (A) (A)
                 (A) (A) (A) (A) (A) (A) (A) (A) (A) (A) (A) (A)
                 (A) (A) (A) (A) (A) (A) (A) (A) (A) (A) (A) (A)
                 (A) (A) (A) (A) (A) (A) (A) (A) (A) (A) (A) (A)
                 (A) (A) (A) (A) (A) (A) (A) (A) (A) (A) (A) (A)
                 (A) (A) (A) (A) (A) (A) (A) (A) (A) (A) (A) (A)
                 (A) (A) (A) (A) (A) (A) (A) (A) (A) (A) (A) (A)
                 (A) (A) (A) (A) (A) (A) (A) (A) (A) (A) (A) (A)
                 (A) (A) (A) (A) (A) (A) (A) (A) (A) (A) (A) (A)
                 (A) (A) (A) (A) (A) (A) (A) (A) (A) (A) (A) (A)
                 (A) (A) (A) (A) (A) (A) (A) (A) (A) (A) (A) (A)
                 (A) (A) (A) (A) (A) (A) (A) (A) (A) (A) (A) (A)
                 (A) (A) (A) (A) (A) (A) (A) (A) (A) (A) (A) (A)
                 (A) (A) (A) (A) (A) (A) (A) (A) (A) (A) (A) (A)
                 (A) (A) (A) (A) (A) (A) (A) (A) (A) (A) (A) (A)
                 (A) (A) (A) (A) (A) (A) (A) (A) (A) (A) (A) (A)
                 (A) (A) (A) (A) (A) (A) (A) (A) (A) (A) (A) (A)
                 (A) (A) (A) (A) (A) (A) (A) (A) (A) (A) (A) (A)
                 (A) (A) (A) (A) (A) (A) (A) (A) (A) (A) (A) (A)
                 (A) (A) (A) (A) (A) (A) (A) (A) (A) (A) (A) (A)
                 (A) (A) (A) (A) (A) (A) (A) (A) (A) (A) (A) (A)
                 (A) (A) (A) (A) (A) (A) (A) (A) (A) (A) (A) (A)
                 (A) (A) (A) (A) (A) (A) (A) (A) (A) (A) (A) (A)
                 (A) (A) (A) (A) (A) (A) (A) (A) (A) (A) (A) (A)
                 (A) (A) (A) (A) (A) (A) (A) (A) (A) (A) (A) (A)
                 (A) (A) (A) (A) (A) (A) (A) (A) (A) (A) (A) (A)
                 (A) (A) (A) (A) (A) (A) (A) (A) (A) (A) (A) (A)
                 (A) (A) (A) (A) (A) (A) (A) (A) (A) (A) (A) (A)
                 (A) (A) (A) (A) (A) (A) (A) (A) (A) (A) (A) (A)
                 (A) (A) (A) (A) (A) (A) (A) (A) (A) (A) (A) (A)
                 (A) (A) (A)
 The electronic state is 1-A.
 Alpha  occ. eigenvalues -- -102.68245 -19.70466 -19.69713 -19.68006 -19.66052
 Alpha  occ. eigenvalues --  -19.64891 -14.76984 -10.71493 -10.67421 -10.64845
 Alpha  occ. eigenvalues --  -10.62589 -10.62271 -10.62193 -10.59870 -10.59323
 Alpha  occ. eigenvalues --  -10.58778 -10.58559 -10.57836 -10.57506 -10.55493
 Alpha  occ. eigenvalues --   -9.82928  -7.55330  -7.54670  -7.54660  -1.24518
 Alpha  occ. eigenvalues --   -1.24258  -1.19374  -1.16270  -1.15068  -1.04212
 Alpha  occ. eigenvalues --   -1.00848  -0.95349  -0.92012  -0.88382  -0.86860
 Alpha  occ. eigenvalues --   -0.83552  -0.81323  -0.77489  -0.73477  -0.72330
 Alpha  occ. eigenvalues --   -0.69931  -0.68280  -0.67478  -0.63417  -0.61123
 Alpha  occ. eigenvalues --   -0.60650  -0.59900  -0.57940  -0.57462  -0.56401
 Alpha  occ. eigenvalues --   -0.55015  -0.54696  -0.53843  -0.53065  -0.51238
 Alpha  occ. eigenvalues --   -0.50892  -0.50563  -0.49508  -0.48721  -0.47970
 Alpha  occ. eigenvalues --   -0.47438  -0.46849  -0.46189  -0.45903  -0.45462
 Alpha  occ. eigenvalues --   -0.43895  -0.43634  -0.42823  -0.41114  -0.40256
 Alpha  occ. eigenvalues --   -0.38898  -0.38819  -0.37383  -0.36530  -0.36385
 Alpha  occ. eigenvalues --   -0.33974  -0.31434  -0.28523
 Alpha virt. eigenvalues --   -0.03147   0.00472   0.00683   0.01575   0.02166
 Alpha virt. eigenvalues --    0.02363   0.02809   0.03422   0.03493   0.04492
 Alpha virt. eigenvalues --    0.04731   0.04759   0.05220   0.05626   0.06249
 Alpha virt. eigenvalues --    0.06849   0.07304   0.07400   0.07692   0.08094
 Alpha virt. eigenvalues --    0.08305   0.08715   0.09649   0.09901   0.10277
 Alpha virt. eigenvalues --    0.10682   0.11085   0.11789   0.12355   0.12408
 Alpha virt. eigenvalues --    0.13412   0.13435   0.13817   0.14421   0.14901
 Alpha virt. eigenvalues --    0.15006   0.15505   0.15641   0.15969   0.16346
 Alpha virt. eigenvalues --    0.16744   0.17333   0.17756   0.18026   0.18419
 Alpha virt. eigenvalues --    0.18764   0.18891   0.19113   0.19751   0.20225
 Alpha virt. eigenvalues --    0.20250   0.20663   0.21537   0.21563   0.22060
 Alpha virt. eigenvalues --    0.22553   0.22778   0.22911   0.23405   0.23623
 Alpha virt. eigenvalues --    0.24167   0.24814   0.24992   0.25226   0.25377
 Alpha virt. eigenvalues --    0.26009   0.26037   0.26572   0.26850   0.27214
 Alpha virt. eigenvalues --    0.27652   0.28247   0.28767   0.29260   0.29564
 Alpha virt. eigenvalues --    0.29946   0.30104   0.30649   0.30951   0.31472
 Alpha virt. eigenvalues --    0.31779   0.32223   0.32630   0.33883   0.33925
 Alpha virt. eigenvalues --    0.34430   0.34614   0.34969   0.35766   0.35944
 Alpha virt. eigenvalues --    0.36102   0.36969   0.37853   0.38005   0.38371
 Alpha virt. eigenvalues --    0.39285   0.39333   0.40189   0.40593   0.40747
 Alpha virt. eigenvalues --    0.41121   0.42313   0.43503   0.44279   0.44313
 Alpha virt. eigenvalues --    0.45058   0.46585   0.46663   0.47271   0.47645
 Alpha virt. eigenvalues --    0.50054   0.50270   0.51643   0.52286   0.53461
 Alpha virt. eigenvalues --    0.54772   0.59043   0.59555   0.60496   0.64484
 Alpha virt. eigenvalues --    0.67330   0.68368   0.69358   0.70409   0.71353
 Alpha virt. eigenvalues --    0.71804   0.72499   0.73296   0.73928   0.74933
 Alpha virt. eigenvalues --    0.75450   0.75573   0.77002   0.77361   0.79511
 Alpha virt. eigenvalues --    0.79892   0.81412   0.81479   0.81980   0.82675
 Alpha virt. eigenvalues --    0.83607   0.84227   0.85404   0.85914   0.86854
 Alpha virt. eigenvalues --    0.88169   0.89195   0.90410   0.90714   0.90847
 Alpha virt. eigenvalues --    0.93089   0.93941   0.94648   0.95447   0.97538
 Alpha virt. eigenvalues --    0.98485   0.99465   1.00440   1.01654   1.02913
 Alpha virt. eigenvalues --    1.03028   1.04516   1.05445   1.06419   1.06759
 Alpha virt. eigenvalues --    1.07488   1.10614   1.11510   1.11618   1.12471
 Alpha virt. eigenvalues --    1.13014   1.14393   1.15120   1.15747   1.16884
 Alpha virt. eigenvalues --    1.17167   1.17881   1.18926   1.19449   1.21665
 Alpha virt. eigenvalues --    1.22502   1.24331   1.25032   1.25899   1.26943
 Alpha virt. eigenvalues --    1.27475   1.28335   1.29329   1.29813   1.31427
 Alpha virt. eigenvalues --    1.32704   1.33288   1.34771   1.36309   1.36558
 Alpha virt. eigenvalues --    1.36648   1.37889   1.38234   1.39550   1.40356
 Alpha virt. eigenvalues --    1.41264   1.41679   1.42460   1.42987   1.43484
 Alpha virt. eigenvalues --    1.44500   1.45229   1.45367   1.47393   1.47807
 Alpha virt. eigenvalues --    1.49380   1.50177   1.51919   1.52453   1.54134
 Alpha virt. eigenvalues --    1.56446   1.57165   1.57766   1.58101   1.59577
 Alpha virt. eigenvalues --    1.60199   1.62190   1.63750   1.65781   1.69050
 Alpha virt. eigenvalues --    1.69633   1.70855   1.72941   1.74735   1.76838
 Alpha virt. eigenvalues --    1.77885   1.78175   1.80113   1.81137   1.81696
 Alpha virt. eigenvalues --    1.82068   1.83115   1.84599   1.85682   1.85931
 Alpha virt. eigenvalues --    1.89225   1.90074   1.90936   1.91612   1.93112
 Alpha virt. eigenvalues --    1.95371   1.96124   1.96702   1.97291   1.99932
 Alpha virt. eigenvalues --    2.00103   2.01588   2.01772   2.03112   2.04441
 Alpha virt. eigenvalues --    2.05372   2.07052   2.07404   2.08501   2.09278
 Alpha virt. eigenvalues --    2.10622   2.11363   2.11508   2.13305   2.16236
 Alpha virt. eigenvalues --    2.17939   2.18554   2.20075   2.21327   2.23377
 Alpha virt. eigenvalues --    2.24559   2.25248   2.25775   2.27713   2.28398
 Alpha virt. eigenvalues --    2.29490   2.30846   2.31118   2.36615   2.37488
 Alpha virt. eigenvalues --    2.37979   2.39211   2.41595   2.42415   2.42712
 Alpha virt. eigenvalues --    2.43322   2.44408   2.47534   2.47984   2.48870
 Alpha virt. eigenvalues --    2.51737   2.52400   2.52571   2.53371   2.54707
 Alpha virt. eigenvalues --    2.56113   2.57404   2.58318   2.58755   2.59335
 Alpha virt. eigenvalues --    2.60632   2.61736   2.63154   2.64429   2.65811
 Alpha virt. eigenvalues --    2.67701   2.68798   2.69565   2.70075   2.70464
 Alpha virt. eigenvalues --    2.72802   2.74139   2.75097   2.75349   2.76029
 Alpha virt. eigenvalues --    2.78360   2.79905   2.81392   2.81633   2.82999
 Alpha virt. eigenvalues --    2.85327   2.85813   2.86480   2.90000   2.92020
 Alpha virt. eigenvalues --    2.93405   2.96664   2.98856   3.02163   3.02936
 Alpha virt. eigenvalues --    3.04162   3.07555   3.08204   3.08449   3.11828
 Alpha virt. eigenvalues --    3.13354   3.14745   3.21719   3.23748   3.24004
 Alpha virt. eigenvalues --    3.26534   3.32600   3.35529   3.37778   3.40034
 Alpha virt. eigenvalues --    3.44495   3.45987   3.47412   3.48564   3.50993
 Alpha virt. eigenvalues --    3.52943   3.58623   3.64738   3.67669   3.77033
 Alpha virt. eigenvalues --    4.27062   4.27808   4.30722   4.32413   4.37563
 Alpha virt. eigenvalues --    4.39392   4.41377   4.43557   4.50240   4.51702
 Alpha virt. eigenvalues --    4.54334   4.56182   4.58651   4.64060   4.65299
 Alpha virt. eigenvalues --    4.76321   4.78559   4.85630   4.89912   4.95971
          Condensed to atoms (all electrons):
              1          2          3          4          5          6
     1  O    8.388116   0.504852   0.070668   0.006158  -0.011396   0.007167
     2  C    0.504852  19.430006  -5.063064   0.751954   0.120541   0.034073
     3  C    0.070668  -5.063064  15.262236  -1.958185  -0.489667   0.537504
     4  C    0.006158   0.751954  -1.958185  10.189223   0.290234  -0.960431
     5  N   -0.011396   0.120541  -0.489667   0.290234   7.553509  -0.203938
     6  C    0.007167   0.034073   0.537504  -0.960431  -0.203938  10.449949
     7  C   -0.008218   0.139295   0.174600  -0.111431  -0.119608  -1.004152
     8  O    0.000833  -0.011058   0.011068   0.000980  -0.000556  -0.186228
     9  C   -0.013510   0.282880  -0.208154  -0.080453   0.043784   0.273949
    10  C    0.022690  -0.482452   0.359870  -0.188813   0.049711  -0.112301
    11  O   -0.008557   0.032872  -0.007811  -0.024105  -0.012046  -0.011282
    12  O    0.007027   0.032053  -0.021449  -0.036092  -0.022707  -0.006668
    13  C    0.002309  -0.229142  -0.391154   0.419677   0.275909  -2.831308
    14  C    0.000731  -0.079955  -0.127507  -0.123362   0.012175  -0.083620
    15  O   -0.005364   0.047626  -0.233253   0.354284  -0.152727  -0.097636
    16  C    0.082502  -5.403317   1.527073  -3.657832  -0.138497  -0.124635
    17  C   -0.023097  -0.216888  -2.351980   1.369551  -0.019557  -0.313568
    18  Cl  -0.000379  -0.007386  -0.019775   0.007393  -0.000056   0.000190
    19  C    0.045576   0.878119  -0.403385   0.101766   0.016905  -0.031338
    20  C   -0.744734  -4.632688  -0.466331  -1.035212   0.215769   0.202784
    21  H    0.193231   0.047390  -0.149387   0.023997   0.056412   0.009302
    22  H    0.000357   0.005491  -0.034043   0.061848  -0.052681   0.313739
    23  H    0.000018  -0.002259   0.001827  -0.026112   0.012115   0.040487
    24  H   -0.000391  -0.006974   0.009997  -0.014147   0.019234  -0.023859
    25  H   -0.000042   0.000885   0.004377  -0.009496   0.001440   0.017486
    26  H    0.000019  -0.002485  -0.016322   0.012931  -0.016698   0.042075
    27  H   -0.000206   0.004064  -0.003038  -0.010942   0.000611   0.001180
    28  H   -0.000007   0.002004  -0.010832   0.037321  -0.003398   0.017062
    29  H   -0.000001  -0.000381  -0.005503   0.018063  -0.002008  -0.026008
    30  H   -0.000001   0.000166   0.002005   0.003434  -0.000857   0.022697
    31  H    0.000000   0.000139  -0.000355  -0.013043  -0.001292   0.040621
    32  H   -0.000419   0.029378   0.001287   0.061559   0.001103   0.006462
    33  H   -0.000468  -0.046342   0.002969  -0.008600   0.000036   0.000002
    34  H   -0.002998   0.002011   0.020534  -0.003173   0.000528   0.000291
              7          8          9         10         11         12
     1  O   -0.008218   0.000833  -0.013510   0.022690  -0.008557   0.007027
     2  C    0.139295  -0.011058   0.282880  -0.482452   0.032872   0.032053
     3  C    0.174600   0.011068  -0.208154   0.359870  -0.007811  -0.021449
     4  C   -0.111431   0.000980  -0.080453  -0.188813  -0.024105  -0.036092
     5  N   -0.119608  -0.000556   0.043784   0.049711  -0.012046  -0.022707
     6  C   -1.004152  -0.186228   0.273949  -0.112301  -0.011282  -0.006668
     7  C    7.298819   0.362475   0.170932  -0.706267   0.082498   0.087130
     8  O    0.362475   8.225053  -0.086553  -0.040784  -0.000503   0.014499
     9  C    0.170932  -0.086553   6.732784  -0.602018  -0.223878  -0.206007
    10  C   -0.706267  -0.040784  -0.602018   6.028172   0.255840   0.526403
    11  O    0.082498  -0.000503  -0.223878   0.255840   8.187720  -0.135513
    12  O    0.087130   0.014499  -0.206007   0.526403  -0.135513   8.199506
    13  C   -0.263902   0.043627  -0.308095   0.367084  -0.003274  -0.025785
    14  C   -0.406937  -0.008477  -0.170340   0.112363  -0.002523   0.001012
    15  O    0.057622  -0.003062   0.015191  -0.032310   0.001071  -0.000031
    16  C    0.120333  -0.004557  -0.171094   0.208565   0.018791  -0.012037
    17  C   -0.025583  -0.000451  -0.023020   0.024634  -0.001661  -0.003673
    18  Cl   0.000086  -0.000003  -0.000483   0.001064  -0.000005  -0.000024
    19  C    0.011499  -0.000213   0.013170  -0.023998   0.002530   0.001216
    20  C    0.053594  -0.001477   0.045668  -0.021841   0.005525   0.033759
    21  H   -0.005137  -0.000267  -0.001632   0.004530   0.000033   0.000020
    22  H   -0.032894  -0.005210   0.009234  -0.003643   0.000011  -0.000546
    23  H    0.295072  -0.056513  -0.019173   0.022198  -0.000513   0.000312
    24  H    0.021113   0.261282  -0.033875   0.017414   0.000203   0.008110
    25  H   -0.032668  -0.000738   0.341946   0.015191  -0.000247  -0.001977
    26  H   -0.005215   0.007799   0.382391  -0.076803   0.002289   0.011408
    27  H   -0.004439   0.000004   0.032425  -0.001899   0.249145   0.003676
    28  H    0.030751  -0.000587  -0.001792  -0.001528   0.000002   0.000018
    29  H    0.083416  -0.000581  -0.033993  -0.003959  -0.000003  -0.000010
    30  H   -0.015051   0.000049   0.004218   0.000507  -0.000002  -0.000001
    31  H   -0.036659  -0.000077   0.012039  -0.000180   0.000003   0.000006
    32  H   -0.000029   0.000001   0.000009   0.000610   0.000000  -0.000002
    33  H   -0.000007   0.000000  -0.000003  -0.000021   0.000000   0.000001
    34  H   -0.000008   0.000000  -0.000017   0.000149   0.000001  -0.000011
             13         14         15         16         17         18
     1  O    0.002309   0.000731  -0.005364   0.082502  -0.023097  -0.000379
     2  C   -0.229142  -0.079955   0.047626  -5.403317  -0.216888  -0.007386
     3  C   -0.391154  -0.127507  -0.233253   1.527073  -2.351980  -0.019775
     4  C    0.419677  -0.123362   0.354284  -3.657832   1.369551   0.007393
     5  N    0.275909   0.012175  -0.152727  -0.138497  -0.019557  -0.000056
     6  C   -2.831308  -0.083620  -0.097636  -0.124635  -0.313568   0.000190
     7  C   -0.263902  -0.406937   0.057622   0.120333  -0.025583   0.000086
     8  O    0.043627  -0.008477  -0.003062  -0.004557  -0.000451  -0.000003
     9  C   -0.308095  -0.170340   0.015191  -0.171094  -0.023020  -0.000483
    10  C    0.367084   0.112363  -0.032310   0.208565   0.024634   0.001064
    11  O   -0.003274  -0.002523   0.001071   0.018791  -0.001661  -0.000005
    12  O   -0.025785   0.001012  -0.000031  -0.012037  -0.003673  -0.000024
    13  C    8.592973   0.218241  -0.051957  -0.223152   0.351347  -0.000610
    14  C    0.218241   5.965980  -0.078141  -0.008152   0.072726   0.000529
    15  O   -0.051957  -0.078141   8.462371  -0.052868   0.091055  -0.000528
    16  C   -0.223152  -0.008152  -0.052868  23.093046  -5.587880  -0.151550
    17  C    0.351347   0.072726   0.091055  -5.587880  11.412261  -0.072885
    18  Cl  -0.000610   0.000529  -0.000528  -0.151550  -0.072885  17.032518
    19  C    0.007675   0.000430  -0.003178  -2.883843   1.312788  -0.092316
    20  C   -0.211693  -0.016747   0.027706  -0.216392  -0.027795   0.085920
    21  H    0.000610   0.001002   0.002047  -0.037752   0.005696   0.000005
    22  H    0.014189   0.003717   0.009788   0.003719   0.001507   0.000001
    23  H   -0.013265   0.026455  -0.003528  -0.002391  -0.000112   0.000000
    24  H    0.001728   0.000385  -0.000188  -0.000660  -0.000104   0.000000
    25  H   -0.002136   0.004310  -0.000025   0.000032  -0.000127   0.000000
    26  H   -0.020891  -0.009379   0.002407  -0.001093   0.002519  -0.000005
    27  H   -0.001292  -0.000241   0.000044  -0.002503  -0.001607  -0.000002
    28  H    0.318668  -0.074172  -0.048898   0.018724   0.001991   0.000007
    29  H   -0.058008   0.369644   0.004193   0.009131   0.000986   0.000006
    30  H   -0.061861   0.423514  -0.007047  -0.003395  -0.000910  -0.000001
    31  H   -0.104645   0.458349   0.006971  -0.001194  -0.000016   0.000000
    32  H    0.003520  -0.000864   0.004449   0.204948  -0.014390  -0.002588
    33  H   -0.000057   0.000000   0.000006   0.127947   0.084313  -0.007897
    34  H   -0.000074  -0.000002   0.000015   0.010445  -0.003391   0.000910
             19         20         21         22         23         24
     1  O    0.045576  -0.744734   0.193231   0.000357   0.000018  -0.000391
     2  C    0.878119  -4.632688   0.047390   0.005491  -0.002259  -0.006974
     3  C   -0.403385  -0.466331  -0.149387  -0.034043   0.001827   0.009997
     4  C    0.101766  -1.035212   0.023997   0.061848  -0.026112  -0.014147
     5  N    0.016905   0.215769   0.056412  -0.052681   0.012115   0.019234
     6  C   -0.031338   0.202784   0.009302   0.313739   0.040487  -0.023859
     7  C    0.011499   0.053594  -0.005137  -0.032894   0.295072   0.021113
     8  O   -0.000213  -0.001477  -0.000267  -0.005210  -0.056513   0.261282
     9  C    0.013170   0.045668  -0.001632   0.009234  -0.019173  -0.033875
    10  C   -0.023998  -0.021841   0.004530  -0.003643   0.022198   0.017414
    11  O    0.002530   0.005525   0.000033   0.000011  -0.000513   0.000203
    12  O    0.001216   0.033759   0.000020  -0.000546   0.000312   0.008110
    13  C    0.007675  -0.211693   0.000610   0.014189  -0.013265   0.001728
    14  C    0.000430  -0.016747   0.001002   0.003717   0.026455   0.000385
    15  O   -0.003178   0.027706   0.002047   0.009788  -0.003528  -0.000188
    16  C   -2.883843  -0.216392  -0.037752   0.003719  -0.002391  -0.000660
    17  C    1.312788  -0.027795   0.005696   0.001507  -0.000112  -0.000104
    18  Cl  -0.092316   0.085920   0.000005   0.000001   0.000000   0.000000
    19  C    7.537129  -0.327261  -0.008230   0.000299  -0.000038  -0.000092
    20  C   -0.327261  12.441386   0.116660  -0.001838   0.000036  -0.000020
    21  H   -0.008230   0.116660   0.300582  -0.000138   0.000001  -0.000021
    22  H    0.000299  -0.001838  -0.000138   0.521673  -0.004622  -0.001490
    23  H   -0.000038   0.000036   0.000001  -0.004622   0.561848   0.006668
    24  H   -0.000092  -0.000020  -0.000021  -0.001490   0.006668   0.327196
    25  H   -0.000004   0.000256   0.000001  -0.000072  -0.005238  -0.000054
    26  H   -0.000024  -0.000809   0.000006  -0.000058  -0.001068  -0.000074
    27  H    0.000783   0.007819   0.000011   0.000000   0.000004   0.000007
    28  H    0.000356   0.000090  -0.000006  -0.008388  -0.000133  -0.000005
    29  H    0.000107   0.000003   0.000000  -0.000009  -0.002138  -0.000002
    30  H   -0.000062   0.000100   0.000000  -0.000104   0.000136   0.000000
    31  H   -0.000007  -0.000001   0.000000   0.000168  -0.000148  -0.000004
    32  H    0.039910  -0.011658  -0.000008   0.000000   0.000000   0.000000
    33  H    0.182751  -0.004844   0.000003   0.000000   0.000000   0.000000
    34  H   -0.007337   0.310470   0.000057   0.000000   0.000000   0.000000
             25         26         27         28         29         30
     1  O   -0.000042   0.000019  -0.000206  -0.000007  -0.000001  -0.000001
     2  C    0.000885  -0.002485   0.004064   0.002004  -0.000381   0.000166
     3  C    0.004377  -0.016322  -0.003038  -0.010832  -0.005503   0.002005
     4  C   -0.009496   0.012931  -0.010942   0.037321   0.018063   0.003434
     5  N    0.001440  -0.016698   0.000611  -0.003398  -0.002008  -0.000857
     6  C    0.017486   0.042075   0.001180   0.017062  -0.026008   0.022697
     7  C   -0.032668  -0.005215  -0.004439   0.030751   0.083416  -0.015051
     8  O   -0.000738   0.007799   0.000004  -0.000587  -0.000581   0.000049
     9  C    0.341946   0.382391   0.032425  -0.001792  -0.033993   0.004218
    10  C    0.015191  -0.076803  -0.001899  -0.001528  -0.003959   0.000507
    11  O   -0.000247   0.002289   0.249145   0.000002  -0.000003  -0.000002
    12  O   -0.001977   0.011408   0.003676   0.000018  -0.000010  -0.000001
    13  C   -0.002136  -0.020891  -0.001292   0.318668  -0.058008  -0.061861
    14  C    0.004310  -0.009379  -0.000241  -0.074172   0.369644   0.423514
    15  O   -0.000025   0.002407   0.000044  -0.048898   0.004193  -0.007047
    16  C    0.000032  -0.001093  -0.002503   0.018724   0.009131  -0.003395
    17  C   -0.000127   0.002519  -0.001607   0.001991   0.000986  -0.000910
    18  Cl   0.000000  -0.000005  -0.000002   0.000007   0.000006  -0.000001
    19  C   -0.000004  -0.000024   0.000783   0.000356   0.000107  -0.000062
    20  C    0.000256  -0.000809   0.007819   0.000090   0.000003   0.000100
    21  H    0.000001   0.000006   0.000011  -0.000006   0.000000   0.000000
    22  H   -0.000072  -0.000058   0.000000  -0.008388  -0.000009  -0.000104
    23  H   -0.005238  -0.001068   0.000004  -0.000133  -0.002138   0.000136
    24  H   -0.000054  -0.000074   0.000007  -0.000005  -0.000002   0.000000
    25  H    0.456050  -0.020425  -0.000206   0.000001   0.000048   0.000000
    26  H   -0.020425   0.514609  -0.000039  -0.000016   0.001609   0.000039
    27  H   -0.000206  -0.000039   0.297770   0.000000   0.000000   0.000000
    28  H    0.000001  -0.000016   0.000000   0.539576   0.004018  -0.004775
    29  H    0.000048   0.001609   0.000000   0.004018   0.527426  -0.026363
    30  H    0.000000   0.000039   0.000000  -0.004775  -0.026363   0.501220
    31  H   -0.000007  -0.000069   0.000000  -0.001138  -0.026807  -0.022847
    32  H    0.000000   0.000001   0.000000  -0.000004   0.000000  -0.000004
    33  H    0.000000   0.000000   0.000000   0.000000   0.000000   0.000000
    34  H    0.000000   0.000000   0.000000   0.000000   0.000000   0.000000
             31         32         33         34
     1  O    0.000000  -0.000419  -0.000468  -0.002998
     2  C    0.000139   0.029378  -0.046342   0.002011
     3  C   -0.000355   0.001287   0.002969   0.020534
     4  C   -0.013043   0.061559  -0.008600  -0.003173
     5  N   -0.001292   0.001103   0.000036   0.000528
     6  C    0.040621   0.006462   0.000002   0.000291
     7  C   -0.036659  -0.000029  -0.000007  -0.000008
     8  O   -0.000077   0.000001   0.000000   0.000000
     9  C    0.012039   0.000009  -0.000003  -0.000017
    10  C   -0.000180   0.000610  -0.000021   0.000149
    11  O    0.000003   0.000000   0.000000   0.000001
    12  O    0.000006  -0.000002   0.000001  -0.000011
    13  C   -0.104645   0.003520  -0.000057  -0.000074
    14  C    0.458349  -0.000864   0.000000  -0.000002
    15  O    0.006971   0.004449   0.000006   0.000015
    16  C   -0.001194   0.204948   0.127947   0.010445
    17  C   -0.000016  -0.014390   0.084313  -0.003391
    18  Cl   0.000000  -0.002588  -0.007897   0.000910
    19  C   -0.000007   0.039910   0.182751  -0.007337
    20  C   -0.000001  -0.011658  -0.004844   0.310470
    21  H    0.000000  -0.000008   0.000003   0.000057
    22  H    0.000168   0.000000   0.000000   0.000000
    23  H   -0.000148   0.000000   0.000000   0.000000
    24  H   -0.000004   0.000000   0.000000   0.000000
    25  H   -0.000007   0.000000   0.000000   0.000000
    26  H   -0.000069   0.000001   0.000000   0.000000
    27  H    0.000000   0.000000   0.000000   0.000000
    28  H   -0.001138  -0.000004   0.000000   0.000000
    29  H   -0.026807   0.000000   0.000000   0.000000
    30  H   -0.022847  -0.000004   0.000000   0.000000
    31  H    0.502173   0.000000   0.000000   0.000000
    32  H    0.000000   0.462806  -0.000131   0.000008
    33  H    0.000000  -0.000131   0.468034  -0.003646
    34  H    0.000000   0.000008  -0.003646   0.470598
 Mulliken atomic charges:
              1
     1  O   -0.512466
     2  C   -0.161412
     3  C   -0.024818
     4  C    0.551055
     5  N   -0.422326
     6  C   -0.000048
     7  C   -0.211029
     8  O   -0.519773
     9  C   -0.176530
    10  C    0.281821
    11  O   -0.406611
    12  O   -0.453623
    13  C    0.184746
    14  C   -0.481141
    15  O   -0.316105
    16  C   -0.740463
    17  C   -0.042681
    18  Cl   0.227865
    19  C   -0.371684
    20  C    0.173795
    21  H    0.440983
    22  H    0.199995
    23  H    0.170072
    24  H    0.408623
    25  H    0.231437
    26  H    0.191370
    27  H    0.428873
    28  H    0.185093
    29  H    0.167127
    30  H    0.185196
    31  H    0.188021
    32  H    0.214045
    33  H    0.205952
    34  H    0.204640
 Sum of Mulliken atomic charges =   0.00000
 Mulliken charges with hydrogens summed into heavy atoms:
              1
     1  O   -0.071483
     2  C   -0.161412
     3  C   -0.024818
     4  C    0.551055
     5  N   -0.422326
     6  C    0.199947
     7  C   -0.040957
     8  O   -0.111150
     9  C    0.246277
    10  C    0.281821
    11  O    0.022263
    12  O   -0.453623
    13  C    0.369838
    14  C    0.059203
    15  O   -0.316105
    16  C   -0.526418
    17  C   -0.042681
    18  Cl   0.227865
    19  C   -0.165732
    20  C    0.378435
 Sum of Mulliken charges with hydrogens summed into heavy atoms =   0.00000
 Electronic spatial extent (au):  <R**2>=           6577.2278
 Charge=              0.0000 electrons
 Dipole moment (field-independent basis, Debye):
    X=             -0.7908    Y=              2.9271    Z=              2.4041  Tot=              3.8695
 Quadrupole moment (field-independent basis, Debye-Ang):
   XX=           -130.5893   YY=           -116.6770   ZZ=           -125.0133
   XY=            -19.4980   XZ=             -8.2503   YZ=             -8.2865
 Traceless Quadrupole moment (field-independent basis, Debye-Ang):
   XX=             -6.4961   YY=              7.4162   ZZ=             -0.9201
   XY=            -19.4980   XZ=             -8.2503   YZ=             -8.2865
 Octapole moment (field-independent basis, Debye-Ang**2):
  XXX=             11.3850  YYY=             14.9868  ZZZ=             10.6200  XYY=             -7.3056
  XXY=             -0.2842  XXZ=             27.9556  XZZ=            -18.3286  YZZ=             -6.9476
  YYZ=             17.4919  XYZ=              8.6463
 Hexadecapole moment (field-independent basis, Debye-Ang**3):
 XXXX=          -6184.0661 YYYY=          -1861.3061 ZZZZ=           -830.9956 XXXY=           -242.7382
 XXXZ=           -175.6902 YYYX=            -62.2416 YYYZ=            -73.3835 ZZZX=             23.1953
 ZZZY=            -45.9109 XXYY=          -1209.3096 XXZZ=          -1139.6123 YYZZ=           -408.1819
 XXYZ=             -0.5443 YYXZ=              0.9072 ZZXY=             23.3396
 N-N= 1.741302618459D+03 E-N=-6.755269693336D+03  KE= 1.385269943403D+03
 D1PCM: PCM CHGder 1st derivatives, ID1Alg=3 FixD1E=F DoIter=F DoCFld=F I1PDM=0.
 Calling FoFJK, ICntrl=      2127 FMM=F ISym2X=0 I1Cent= 0 IOpClX= 0 NMat=1 NMatS=1 NMatT=0.
 ***** Axes restored to original set *****
 -------------------------------------------------------------------
 Center     Atomic                   Forces (Hartrees/Bohr)
 Number     Number              X              Y              Z
 -------------------------------------------------------------------
      1        8          -0.031579150    0.004724097   -0.001786887
      2        6           0.011695862   -0.004019996    0.000444233
      3        6          -0.005530467    0.018327671   -0.001451324
      4        6           0.003575407   -0.000983048   -0.000396697
      5        7          -0.007146980   -0.024608788   -0.000942296
      6        6           0.017237303    0.004521908   -0.006040095
      7        6          -0.003228802   -0.009159866    0.000313449
      8        8           0.013830515    0.010780100   -0.000779716
      9        6          -0.013647137    0.000543484    0.009555603
     10        6           0.001966756   -0.006639841    0.011902232
     11        8           0.035378237    0.017931110    0.025422221
     12        8          -0.000593616    0.022894755   -0.017311519
     13        6           0.019707328    0.003362457   -0.002017367
     14        6          -0.008710460   -0.003728658    0.002703149
     15        8          -0.043898204    0.009678580   -0.013114966
     16        6          -0.014460778   -0.012585560   -0.002471613
     17        6           0.021080717   -0.017663850    0.001544443
     18       17          -0.005630182    0.007043671   -0.000261260
     19        6           0.018027361   -0.000767626    0.001875851
     20        6           0.001226443    0.020371668    0.001208906
     21        1           0.021587844    0.009090896    0.002073642
     22        1           0.006004612   -0.006017462   -0.002850791
     23        1           0.001012025    0.004468849   -0.001287247
     24        1          -0.014922175   -0.016113310   -0.000768320
     25        1           0.004036837   -0.002665199   -0.000950652
     26        1          -0.002683733    0.003757354   -0.001772447
     27        1          -0.023783230   -0.026582128   -0.007754403
     28        1           0.000202837    0.000712312    0.003825840
     29        1          -0.000745776   -0.003273495   -0.003447345
     30        1          -0.001923431    0.000966079    0.002002712
     31        1           0.001234929   -0.002399930    0.002681456
     32        1           0.003829313    0.002980080    0.000477950
     33        1          -0.004161389   -0.001011268   -0.000478248
     34        1           0.001011182   -0.003935043   -0.000148495
 -------------------------------------------------------------------
 Cartesian Forces:  Max     0.043898204 RMS     0.011622531

 GradGradGradGradGradGradGradGradGradGradGradGradGradGradGradGradGradGrad
 Berny optimization.
 Internal  Forces:  Max     0.036495530 RMS     0.007833312
 Search for a local minimum.
 Step number   1 out of a maximum of  191
 All quantities printed in internal units (Hartrees-Bohrs-Radians)
 Mixed Optimization -- RFO/linear search
 Second derivative matrix not updated -- first step.
 ITU=  0
     Eigenvalues ---    0.00230   0.00230   0.00273   0.00284   0.00681
     Eigenvalues ---    0.00772   0.00915   0.01484   0.01558   0.01701
     Eigenvalues ---    0.01843   0.01923   0.01955   0.01969   0.01982
     Eigenvalues ---    0.01998   0.02000   0.02003   0.02145   0.02242
     Eigenvalues ---    0.02396   0.03323   0.03382   0.03691   0.04046
     Eigenvalues ---    0.04177   0.04526   0.04885   0.05124   0.05227
     Eigenvalues ---    0.05542   0.07921   0.08254   0.08534   0.10146
     Eigenvalues ---    0.13341   0.13904   0.16000   0.16000   0.16000
     Eigenvalues ---    0.16000   0.16000   0.16000   0.16000   0.16000
     Eigenvalues ---    0.16000   0.17199   0.18420   0.20034   0.20258
     Eigenvalues ---    0.22009   0.22371   0.23490   0.23843   0.24600
     Eigenvalues ---    0.24996   0.24999   0.24999   0.25000   0.25000
     Eigenvalues ---    0.25000   0.26747   0.26771   0.27301   0.28764
     Eigenvalues ---    0.28834   0.33058   0.33591   0.34533   0.34595
     Eigenvalues ---    0.34786   0.34795   0.34797   0.34810   0.35071
     Eigenvalues ---    0.35133   0.35940   0.35949   0.35980   0.37786
     Eigenvalues ---    0.39783   0.40406   0.42581   0.43049   0.43112
     Eigenvalues ---    0.43976   0.44315   0.44533   0.48569   0.51805
     Eigenvalues ---    0.53275   0.56360   0.57317   0.58783   0.71376
     Eigenvalues ---    0.91750
 RFO step:  Lambda=-2.98187719D-02 EMin= 2.30000000D-03
 Linear search not attempted -- first point.
 Iteration  1 RMS(Cart)=  0.13641029 RMS(Int)=  0.00279917
 Iteration  2 RMS(Cart)=  0.00686400 RMS(Int)=  0.00019169
 Iteration  3 RMS(Cart)=  0.00002258 RMS(Int)=  0.00019136
 Iteration  4 RMS(Cart)=  0.00000000 RMS(Int)=  0.00019136
 Variable       Old X    -DE/DX   Delta X   Delta X   Delta X     New X
                                 (Linear)    (Quad)   (Total)
    R1        2.58087  -0.01704   0.00000  -0.03110  -0.03110   2.54977
    R2        1.80643   0.02335   0.00000   0.03935   0.03935   1.84579
    R3        2.69096  -0.01935   0.00000  -0.04337  -0.04335   2.64761
    R4        2.66269  -0.01408   0.00000  -0.03008  -0.03009   2.63260
    R5        2.81325  -0.02185   0.00000  -0.05974  -0.05974   2.75351
    R6        2.67032  -0.01311   0.00000  -0.02819  -0.02817   2.64215
    R7        2.40023   0.01484   0.00000   0.01912   0.01933   2.41956
    R8        2.58152  -0.01003   0.00000  -0.01925  -0.01907   2.56245
    R9        2.71998   0.01132   0.00000   0.02831   0.02829   2.74827
   R10        2.94908  -0.01362   0.00000  -0.04579  -0.04579   2.90329
   R11        2.91549   0.01037   0.00000   0.03357   0.03334   2.94883
   R12        2.06440   0.00163   0.00000   0.00433   0.00433   2.06873
   R13        2.67532   0.00402   0.00000   0.00872   0.00872   2.68404
[...]
 00172258,0.00000417,0.00000873,0.00000193,0.00000017,0.00001656,0.0000
 0377,0.00000665,-0.00000669,0.00000158,0.00000841,-0.00000320,-0.00000
 010,0.00000170,0.00000638,0.00000468,-0.00003694,-0.00004626,-0.000026
 70,-0.00008921,-0.00011894,0.00008320,-0.00060867,-0.00006584,0.000112
 54,0.00006593,-0.00000209,0.00002459,0.00017728,-0.00007080,-0.0000527
 4,0.00001301,-0.00117063,0.00022451,0.00002161,0.00002441,0.00000525,0
 .00175934,0.00268130,0.00019005,0.00208645,0.04849652,0.34204544,-0.00
 019879,-0.00005472,-0.00004159,0.00007501,-0.00008352,0.00001409,0.000
 00553,0.00014537,0.00002480,0.00050342,-0.00073405,0.00004368,-0.00080
 004,-0.00119944,-0.00021021,-0.00191008,-0.00084170,0.00196843,-0.0007
 7758,-0.00024150,0.00037630,0.00017205,0.00024839,-0.00008898,0.000051
 48,0.00004556,-0.00008289,0.00000208,-0.00005393,0.00005153,0.00003607
 ,0.00001671,-0.00000642,0.00001060,0.00000269,-0.00000657,0.00608732,-
 0.01961267,-0.00348090,-0.09194677,0.10333632,0.02091369,0.00205987,0.
 00116973,-0.00018953,-0.00000797,-0.00001738,-0.00000214,-0.00000973,0
 .00000209,-0.00000448,-0.00000144,0.00000371,-0.00000057,-0.00000473,0
 .00000362,0.00000081,-0.00000487,0.00002292,-0.00000478,0.00017847,0.0
 0018170,0.00004681,0.00004877,-0.00041814,0.00001763,0.00040508,0.0002
 3498,-0.00015482,-0.00004305,0.00001921,-0.00003936,-0.00001154,-0.000
 00646,-0.00002731,0.00002226,-0.00000404,0.00004271,0.00000445,-0.0000
 0135,0.00000182,0.00055482,0.00074855,-0.00050847,-0.00036811,-0.00204
 026,-0.00053225,0.09655118,-0.00025765,-0.00013085,-0.00003815,0.00005
 806,-0.00005660,0.00000421,-0.00006235,0.00014151,0.00000645,0.0004644
 0,-0.00108437,0.00001178,-0.00100185,-0.00107389,-0.00023832,-0.002486
 41,0.00108199,0.00250695,-0.00046923,0.00055297,0.00047156,0.00019460,
 -0.00030212,-0.00017872,-0.00000959,-0.00002180,-0.00005606,0.00016116
 ,0.00016479,0.00006405,-0.00011218,-0.00006174,-0.00006344,-0.00004554
 ,-0.00012611,-0.00003329,0.00964728,-0.02312559,-0.00426094,0.10109263
 ,-0.26913935,-0.04676387,0.00087033,0.00204807,-0.00020513,0.00001983,
 -0.00005598,0.00000255,-0.00003113,-0.00006308,-0.00000753,-0.00002670
 ,0.00002914,-0.00000376,-0.00003667,0.00004100,-0.00000406,0.00001258,
 0.00001396,-0.00000112,0.00024163,0.00030496,0.00003872,0.00009233,-0.
 00056912,0.00000482,-0.00011535,0.00004149,0.00005212,0.00002750,0.000
 08418,0.00003257,-0.00001848,-0.00002728,-0.00003701,0.00005558,-0.000
 03979,0.00006878,0.00001922,0.00002603,0.00002202,-0.00000611,0.001048
 83,-0.00003546,0.00127181,-0.00322310,-0.00032976,-0.10848910,0.291347
 98,0.00020584,0.00012331,0.00003827,-0.00003414,0.00002681,-0.00000414
 ,0.00006575,-0.00005626,-0.00002576,-0.00046362,0.00016503,-0.00014206
 ,0.00048639,0.00153371,0.00034060,0.00296963,0.00044340,-0.00084174,0.
 00066604,0.00027617,-0.00049307,-0.00023624,-0.00024892,0.00019153,-0.
 00030641,0.00013193,0.00001598,0.00037266,0.00015524,-0.00002932,-0.00
 014121,-0.00005835,-0.00000958,-0.00011321,-0.00021941,0.00003937,-0.0
 0856261,0.01741046,0.00235321,0.02194898,-0.04794132,-0.05827191,-0.00
 041450,-0.00110839,0.00017058,-0.00001008,0.00002386,-0.00000207,0.000
 01176,0.00004296,0.00000220,0.00001905,-0.00001886,0.00000224,0.000024
 20,-0.00002210,0.00000190,-0.00000055,-0.00000689,0.00000436,-0.000207
 51,-0.00024702,-0.00004433,-0.00016028,0.00000110,-0.00002294,-0.00042
 594,-0.00025981,-0.00007093,0.00005312,-0.00002836,0.00000406,0.000033
 90,-0.00002240,0.00002901,0.00029589,-0.00008447,0.00016043,0.00000866
 ,0.00000874,-0.00000757,-0.00087000,-0.00016262,0.00057843,0.01338412,
 -0.02837926,-0.00406709,-0.02485676,0.04839638,0.05915974,-0.00001134,
 -0.00008997,-0.00000613,-0.00013065,0.00013078,-0.00003757,-0.00003023
 ,-0.00036119,-0.00009892,-0.00050675,0.00202880,0.00016190,0.00029070,
 -0.00056035,0.00011968,-0.00003892,0.00015643,0.00014882,-0.00027459,-
 0.00023287,0.00029092,0.00015690,0.00019448,-0.00003192,0.00010333,0.0
 0023083,-0.00000437,-0.00005753,-0.00000198,0.00013351,0.00005896,0.00
 000612,-0.00002129,0.00003193,0.00000584,-0.00003029,-0.01374530,0.002
 62432,-0.00697760,-0.29410099,-0.00377401,-0.08323144,-0.00172606,-0.0
 0413036,0.00179285,0.00005196,-0.00003178,0.00002435,-0.00000683,-0.00
 007091,-0.00000439,-0.00003029,0.00002922,-0.00000420,-0.00002864,0.00
 003095,-0.00000458,0.00000846,-0.00004956,0.00001077,0.00006822,0.0000
 9116,0.00000762,0.00002262,-0.00025304,-0.00001496,0.00042820,0.000116
 09,-0.00017531,-0.00005091,0.00002152,-0.00003053,0.00000549,-0.000020
 12,-0.00000393,-0.00000793,-0.00001592,0.00003366,0.00001036,0.0000058
 1,0.00001200,0.00044972,0.00008953,0.00032490,0.00192927,0.00045786,0.
 00091060,-0.01066977,-0.00105158,-0.00373393,0.31778718,0.00005549,-0.
 00005215,0.00001111,-0.00018174,0.00014004,-0.00004378,-0.00003886,-0.
 00051562,-0.00006716,-0.00119123,0.00210260,0.00001222,0.00052978,-0.0
 0005970,0.00009883,0.00042301,0.00015674,-0.00024786,-0.00041687,-0.00
 041391,-0.00016973,0.00016854,0.00026865,0.00006593,-0.00006128,0.0001
 2976,-0.00005288,-0.00000953,-0.00006679,0.00007920,0.00005879,0.00001
 023,-0.00001262,0.00001304,-0.00003150,0.00000048,-0.02013576,0.001073
 68,-0.01072735,-0.00245009,-0.04624808,0.00094375,-0.00468999,-0.00488
 785,0.00250146,0.00005713,-0.00003303,0.00001571,0.00000418,-0.0000573
 0,-0.00000256,-0.00002646,0.00002645,-0.00000375,-0.00002173,0.0000196
 1,-0.00000239,0.00000557,-0.00006470,0.00000159,-0.00000977,0.00001132
 ,-0.00001024,0.00008732,-0.00013330,0.00007825,0.00028491,-0.00078109,
 -0.00066612,-0.00006973,0.00001631,-0.00002890,0.00000872,-0.00000818,
 -0.00000692,0.00005135,-0.00004288,0.00008942,0.00000776,0.00000264,0.
 00000611,0.00058973,0.00072255,0.00001744,-0.00510626,-0.00158517,-0.0
 0143362,0.02760653,0.00217751,0.01012036,0.00444456,0.04815377,-0.0000
 2404,0.00005755,0.00000040,0.00015079,-0.00010092,0.00001768,0.0000487
 5,0.00037994,0.00002504,0.00107114,-0.00096310,0.00026001,-0.00023207,
 0.00013200,-0.00020418,-0.00023576,0.00004769,0.00048657,-0.00066546,-
 0.00026342,-0.00012418,0.00012054,0.00032826,0.00007075,-0.00030667,0.
 00008886,-0.00025039,0.00019275,-0.00003511,-0.00000350,-0.00000354,-0
 .00000177,0.00001477,-0.00004666,-0.00011683,0.00004285,0.01417230,-0.
 00309582,0.00532495,-0.08432761,0.00038563,-0.07637899,0.00329312,0.00
 402318,-0.00047662,-0.00004207,0.00002958,-0.00000190,0.00000414,0.000
 05444,0.00000239,0.00002430,-0.00002323,0.00000309,0.00002494,-0.00002
 512,0.00000235,-0.00001168,0.00004919,0.00000084,-0.00002294,-0.000045
 74,-0.00000686,-0.00006259,0.00002471,-0.00001792,0.00029260,-0.000211
 23,-0.00015159,-0.00005430,0.00000698,-0.00007245,0.00001636,-0.000041
 44,-0.00000741,0.00021303,-0.00004174,0.00017206,0.00000615,-0.0000036
 2,-0.00000909,-0.00054417,-0.00078428,0.00012212,-0.03021566,0.0001247
 0,-0.00758454,0.00673647,0.00057699,0.00093360,0.09043808,-0.00057296,
 0.07781401,0.00005061,0.00154231,0.00003915,-0.00280528,0.00245651,-0.
 00144443,0.01122836,0.01892296,0.00157533,0.00055879,0.00099429,0.0006
 7791,0.00026635,-0.00059291,0.00009390,0.00007281,0.00002312,-0.000026
 42,-0.00003287,0.00004902,0.00006432,0.00003923,-0.00007504,-0.0000295
 1,-0.00000524,0.00000251,-0.00001948,0.00009849,0.00005330,0.00004112,
 -0.00006864,-0.00001087,0.00000880,-0.00003025,-0.00003524,-0.00001315
 ,-0.00063519,-0.00024834,-0.00026653,0.00010548,-0.00002597,0.00006619
 ,-0.00173920,-0.00007461,-0.00004939,-0.08637467,-0.08887950,-0.010146
 53,-0.00505970,-0.02679709,-0.00217324,0.00116636,-0.00095747,0.000636
 83,-0.00528256,-0.00031499,-0.00182086,-0.00075056,0.00085678,0.000056
 86,0.00053230,0.00009818,0.00011493,0.00000128,-0.00002778,-0.00001175
 ,0.00000020,-0.00000211,-0.00001120,0.00000500,0.00001969,0.00000831,-
 0.00000018,-0.00001007,-0.00000631,0.00000817,-0.00000830,0.00002022,0
 .00001016,-0.00000859,-0.00003042,0.00009233,0.00000831,0.00004672,-0.
 00001025,0.00000389,-0.00000624,-0.00001727,-0.00000796,-0.00001038,0.
 00002805,0.00003141,-0.00002451,0.08853706,-0.00024387,-0.00099765,-0.
 00004966,0.00362658,-0.00008284,0.00048619,-0.00737553,-0.01588763,-0.
 00167651,-0.00086291,-0.00175294,0.00001723,-0.00017105,0.00036716,-0.
 00005945,-0.00017135,0.00011039,-0.00006946,0.00004738,-0.00006586,-0.
 00008765,-0.00004844,0.00008228,0.00003431,-0.00000357,0.00000309,0.00
 001953,-0.00003916,-0.00007556,-0.00004040,0.00003455,0.00002613,0.000
 00692,0.00001344,0.00004984,0.00001124,0.00061345,0.00051015,0.0003103
 9,-0.00004337,0.00002791,-0.00004483,-0.00174266,0.00090732,-0.0003779
 8,-0.08940104,-0.31655804,-0.02108041,0.00113183,-0.00051202,0.0000916
 7,0.00074511,0.00094184,0.00016786,-0.00016718,0.00104140,-0.00010847,
 0.00022906,0.00053959,0.00006205,-0.00040037,-0.00008090,-0.00008198,-
 0.00004630,0.00004410,0.00002587,-0.00000769,0.00000261,0.00001424,-0.
 00000062,-0.00002258,-0.00000655,-0.00000151,0.00000963,0.00000650,0.0
 0000197,0.00000809,-0.00002280,-0.00001006,-0.00000412,0.00001245,-0.0
 0005414,-0.00000549,-0.00003542,0.00000597,-0.00000255,0.00000696,0.00
 000692,-0.00000738,0.00000637,-0.00002064,-0.00002911,0.00001527,0.094
 39408,0.33131212,0.00000234,0.00020928,0.00009900,-0.00140543,0.000257
 94,0.00594129,0.00085952,0.00274834,0.00428485,0.00087582,0.00023158,-
 0.00391896,-0.00014447,0.00001904,-0.00004942,0.00000533,0.00003560,0.
 00050403,-0.00007905,-0.00004282,-0.00002948,-0.00001323,0.00002745,-0
 .00000523,-0.00000294,-0.00000433,-0.00001920,0.00005249,-0.00003039,0
 .00001544,-0.00006028,0.00001896,0.00001676,-0.00001140,0.00002518,-0.
 00001286,-0.00004408,0.00003849,-0.00022652,0.00002979,-0.00000400,0.0
 0001762,-0.00013383,-0.00013154,0.00014469,-0.00996968,-0.02096768,-0.
 03996067,-0.00159693,-0.00460562,0.00402452,0.00065736,-0.00008614,-0.
 00281041,-0.00185702,-0.00013451,0.00553281,0.00005611,0.00017331,-0.0
 0094366,0.00006129,-0.00001062,-0.00000409,0.00006305,0.00000038,-0.00
 002409,-0.00001362,0.00000495,0.00001903,-0.00000027,-0.00000467,0.000
 00241,-0.00000012,-0.00000008,-0.00000093,-0.00000137,0.00000176,0.000
 00752,0.00000027,-0.00001030,-0.00000420,-0.00002524,0.00000783,-0.000
 00640,0.00000231,-0.00000509,-0.00000459,-0.00000170,-0.00000263,0.000
 00669,0.00000432,0.00000890,-0.00000587,0.01260002,0.02244948,0.027884
 95,-0.00114930,-0.00018205,-0.00020563,0.00055142,0.00251302,-0.001205
 35,0.00071839,0.00044781,0.00028382,-0.00025654,-0.00005097,0.00006509
 ,0.00000834,-0.00008186,0.00003193,0.00000691,-0.00003530,-0.00003819,
 0.00000510,0.00002223,0.00000954,0.00000136,-0.00000785,-0.00000029,0.
 00000044,-0.00000180,-0.00000021,0.00001382,0.00001874,0.00000108,-0.0
 0001008,-0.00000164,0.00001384,-0.00000883,-0.00001070,0.00000422,0.00
 000895,-0.00001243,0.00001616,-0.00000163,-0.00000147,-0.00000148,-0.0
 0002138,-0.00000266,-0.00002183,0.00118327,-0.00142587,-0.00073766,-0.
 00516274,0.00141302,-0.00145485,0.00079289,0.00049082,0.00054423,-0.32
 861729,-0.05349120,-0.04920990,-0.01244833,-0.00491972,-0.00300776,0.0
 0014818,0.00029703,0.00009809,0.00000256,0.00000678,0.00000178,0.00000
 456,-0.00000180,-0.00000566,0.00000129,0.00000200,0.00000128,0.0000000
 4,-0.00000040,-0.00000067,-0.00000080,-0.00000098,0.00000032,-0.000001
 68,-0.00000535,-0.00001798,0.00000104,-0.00000107,-0.00000088,0.000000
 03,-0.00000006,0.00000004,-0.00000010,0.00000028,0.00000010,-0.0000002
 8,-0.00000065,0.00000028,-0.00009140,0.00003946,-0.00000698,0.34360923
 ,0.00151062,0.00055104,0.00032623,0.00256848,-0.00346199,0.00012537,0.
 00092364,-0.00092156,0.00017684,-0.00024535,-0.00012978,-0.00002030,0.
 00010775,0.00003676,0.00004028,-0.00005019,0.00000652,-0.00002851,-0.0
 0000115,0.00002575,0.00000701,0.00000729,-0.00001052,0.00000107,0.0000
 0211,-0.00000270,0.00000130,-0.00003791,0.00001195,0.00002065,0.000024
 73,-0.00001342,-0.00003702,0.00001832,-0.00001595,-0.00001284,0.000031
 10,0.00003184,0.00001196,-0.00000335,0.00000466,0.00000302,-0.00003406
 ,0.00012229,-0.00002264,-0.00144248,-0.00550483,-0.00050684,-0.0273162
 3,-0.00159076,-0.00466615,-0.00098199,0.00120912,-0.00008211,-0.051726
 65,-0.06731376,-0.00924913,0.02338130,0.00895207,0.00396167,-0.0000007
 4,-0.00035871,-0.00004580,0.00000382,0.00000713,0.00000272,0.00000629,
 -0.00000181,-0.00000523,-0.00000606,0.00000540,-0.00000077,0.00000091,
 0.00000085,-0.00000048,0.00000004,-0.00000136,0.00000169,0.00000384,0.
 00001560,0.00002590,0.00000120,-0.00000018,0.00000004,0.00000044,-0.00
 000102,0.00000009,0.00000197,0.00000303,-0.00000133,0.00000040,-0.0000
 0019,-0.00000037,-0.00130338,0.00015039,-0.00021465,0.05517969,0.06729
 935,-0.00011480,-0.00007654,-0.00017496,-0.00120524,0.00018798,0.00808
 601,0.00026377,0.00003265,-0.00087027,0.00010221,0.00001414,-0.0006259
 5,-0.00000286,0.00002654,-0.00014113,-0.00001385,-0.00000813,0.0001026
 7,-0.00001087,0.00000079,-0.00000383,-0.00000269,0.00000410,-0.0000003
 9,-0.00000242,-0.00000101,-0.00000037,0.00000686,0.00001037,0.00001231
 ,-0.00000026,-0.00000187,-0.00000578,-0.00000705,-0.00000517,0.0000065
 3,-0.00000228,0.00001776,-0.00001170,-0.00000206,0.00000301,-0.0000007
 3,0.00001449,-0.00001732,0.00007118,-0.00070296,-0.00049670,0.00530868
 ,-0.00218446,0.00005502,0.00347926,0.00051324,0.00018164,-0.00234466,-
 0.04917173,-0.00958241,-0.04748598,-0.00233546,-0.00063940,0.00458325,
 0.00004783,0.00003459,-0.00022767,0.00001157,-0.00000386,-0.00000332,-
 0.00000021,-0.00000050,0.00000173,-0.00000068,0.00000054,0.00000170,0.
 00000113,0.00000028,0.00000013,0.00000010,-0.00000052,0.00000041,0.000
 00726,0.00000117,-0.00000136,0.00000221,-0.00000103,-0.00000115,0.0000
 0034,-0.00000045,-0.00000029,0.00000044,0.00000016,0.00000004,-0.00000
 050,-0.00000003,-0.00000008,-0.00004770,0.00000574,-0.00005644,0.05393
 645,0.01016024,0.03492295,0.00313666,0.00010227,0.00109398,-0.00461719
 ,-0.02900750,-0.00237716,-0.00504522,-0.00010491,-0.00166023,0.0005933
 8,-0.00146061,0.00008006,0.00003699,0.00020396,0.00001207,0.00000243,0
 .00005985,0.00000190,0.00000733,-0.00004645,-0.00003144,-0.00001429,0.
 00003459,0.00000977,0.00000047,0.00000471,0.00000834,-0.00000203,-0.00
 006411,-0.00002294,0.00000709,0.00002688,0.00001233,0.00001104,0.00004
 056,-0.00000119,0.00011315,-0.00009392,0.00009241,-0.00005990,0.000013
 88,-0.00004009,-0.00073916,-0.00010075,-0.00015204,-0.00138298,0.00094
 506,-0.00007410,-0.00118249,0.00271893,-0.00136506,-0.00029276,0.00138
 270,-0.00005485,0.01048381,0.02070472,0.00174139,-0.08539926,-0.085835
 71,-0.01045335,-0.00022722,-0.00017708,0.00002252,-0.00002298,-0.00000
 662,0.00000314,-0.00000693,0.00000283,0.00001115,-0.00000166,-0.000011
 24,-0.00000380,-0.00000175,0.00000353,0.00000297,0.00000049,0.00000521
 ,-0.00000869,-0.00002249,-0.00002194,0.00001952,-0.00002878,-0.0000023
 7,-0.00000930,0.00000318,0.00000121,0.00000278,0.00000333,-0.00000133,
 0.00000124,-0.00001434,-0.00001788,0.00001398,0.00010222,-0.00007832,0
 .00009760,0.00071256,-0.00062437,0.00090021,0.08384729,0.00053405,0.00
 047346,0.00018973,0.00074189,-0.00159049,-0.00000669,-0.00068094,0.000
 57992,-0.00024054,0.00047199,-0.00007495,0.00007014,0.00001814,0.00016
 641,-0.00001127,-0.00003659,0.00003289,0.00000958,-0.00000530,-0.00001
 385,-0.00000944,0.00000034,0.00000408,0.00000267,0.00000254,0.00000056
 ,0.00000278,-0.00005237,-0.00000174,-0.00000836,0.00002192,-0.00000859
 ,-0.00000151,0.00001987,-0.00000479,-0.00000151,0.00003139,0.00001415,
 0.00000843,-0.00000706,0.00000504,-0.00000094,-0.00007078,0.00000049,-
 0.00001286,0.00015578,0.00063293,0.00006548,0.00305574,-0.00005670,0.0
 0034376,0.00010709,-0.00095715,-0.00000851,-0.00806976,-0.01575395,-0.
 00182770,-0.08716040,-0.31685119,-0.02145326,-0.00017586,0.00000761,-0
 .00002879,-0.00000479,-0.00000313,0.00000037,-0.00000251,0.00000126,0.
 00000461,-0.00000289,-0.00000026,-0.00000350,-0.00000005,0.00000093,0.
 00000070,-0.00000040,0.00000009,-0.00000059,-0.00002136,0.00000603,0.0
 0003811,-0.00000365,0.00000125,0.00000016,0.00000014,-0.00000053,0.000
 00019,0.00000124,0.00000071,-0.00000003,-0.00000042,-0.00000131,0.0000
 0170,-0.00007614,-0.00004935,-0.00000338,-0.00019504,0.00089478,0.0000
 9821,0.09140418,0.33254541,0.00103912,0.00011268,-0.00303828,-0.001583
 50,-0.00514127,0.00463804,-0.00170731,-0.00008055,0.00476072,0.0001138
 2,-0.00022147,-0.00000691,0.00000090,0.00003220,0.00002320,-0.00000518
 ,0.00001274,0.00002129,0.00000010,-0.00001640,-0.00000085,-0.00000700,
 0.00000983,-0.00000465,-0.00000711,0.00000301,-0.00000181,0.00008772,-
 0.00006017,0.00003081,-0.00008828,0.00001819,0.00001460,-0.00001146,0.
 00004590,-0.00002883,0.00002705,-0.00002089,-0.00001570,-0.00000627,0.
 00000432,-0.00000595,-0.00013690,-0.00003554,-0.00012353,-0.00004601,0
 .00023056,-0.00090632,-0.00136347,0.00025320,0.00723244,-0.00008078,0.
 00019570,0.00021205,0.00103280,0.00301837,0.00326431,-0.01044670,-0.02
 115551,-0.03754620,0.00005025,0.00000925,-0.00060162,-0.00000268,-0.00
 000134,-0.00000094,-0.00000363,0.00000078,0.00000135,0.00000288,-0.000
 00340,0.00000480,-0.00000162,-0.00000037,-0.00000010,0.00000059,0.0000
 0249,-0.00000200,0.00003334,-0.00000901,-0.00002504,-0.00001133,-0.000
 00275,-0.00000510,0.00000088,0.00000060,0.,0.00000051,-0.00000084,0.00
 000028,-0.00000211,-0.00000191,0.00000210,0.00008744,-0.00000870,-0.00
 041859,0.00090709,0.00002808,-0.00462078,0.01212686,0.02278226,0.02714
 726\\-0.00002043,0.00000664,0.00000349,0.00000922,-0.00001491,0.000006
 28,-0.00000845,0.00000957,-0.00001444,-0.00002940,-0.00000675,0.000075
 76,-0.00000712,0.00001219,-0.00003830,0.00003070,-0.00000767,-0.000002
 04,0.00000842,0.00003241,0.00001435,0.00001346,-0.00001551,0.00001503,
 -0.00000166,-0.00000899,-0.00001899,-0.00002688,0.00002680,0.00000852,
 0.00003408,-0.00002543,0.00001140,-0.00000908,-0.00000589,-0.00000571,
 -0.00000297,0.00002447,-0.00001241,0.00000208,0.00000053,-0.00000693,0
 .00000763,-0.00002226,-0.00002765,-0.00000398,-0.00001048,-0.00000924,
 0.00000041,-0.00001645,0.00001162,-0.00000302,-0.00000313,0.00000242,0
 .00001080,0.00000471,0.00000219,0.00000456,0.00000482,0.00001063,0.000
 01118,0.00000719,0.00000906,0.00000086,0.00000576,-0.00000789,-0.00000
 470,0.00000091,-0.00001124,0.00000038,0.00000470,-0.00000311,-0.000005
 46,-0.00000061,0.00000369,-0.00000828,0.00000331,-0.00000277,-0.000010
 76,-0.00001064,0.00000051,0.00000905,0.00000642,-0.00000702,-0.0000067
 3,-0.00000527,-0.00000877,0.00000045,0.00000358,-0.00001247,0.00000410
 ,0.00000719,-0.00001170,-0.00000063,-0.00000106,-0.00000051,0.00000033
 ,-0.00000427,0.00001189,0.00000187,-0.00000190,0.00001434\\\@


 NOBODY LOSES ALL THE TIME
 I HAD AN UNCLE NAMED
 SOL WHO WAS A BORN FAILURE AND
 NEARLY EVERYBODY SAID HE SHOULD HAVE GONE
 INTO VAUDEVILLE PERHAPS BECAUSE MY UNCLE SOL COULD
 SING MCCANN HE WAS A DIVER ON XMAS EVE LIKE HELL ITSELF WHICH
 MAY OR MAY NOT ACCOUNT FOR THE FACT THAT MY UNCLE
 SOL INDULGED IN THAT POSSIBLY MOST INEXCUSABLE
 OF ALL TO USE A HIGHFALOOTIN PHRASE
 LUXURIES THAT IS OR TO
 WIT FARMING AND BE
 IT NEEDLESSLY
 ADDED
 MY UNCLE SOL'S FARM
 FAILED BECAUSE THE CHICKENS
 ATE THE VEGETABLES SO
 MY UNCLE SOL HAD A
 CHICKEN FARM TILL THE
 SKUNKS ATE THE CHICKENS WHEN 
 MY UNCLE SOL
 HAD A SKUNK FARM BUT
 THE SKUNKS CAUGHT COLD AND
 DIED AND SO
 MY UNCLE SOL IMITATED THE
 SKUNKS IN A SUBTLE MANNER
 OR BY DROWNING HIMSELF IN THE WATERTANK
 BUT SOMEBODY WHO'D GIVEN MY UNCLE SOL A VICTOR
 VICTROLA AND RECORDS WHILE HE LIVED PRESENTED TO
 HIM UPON THE AUSPICIOUS OCCASION OF HIS DECEASE A
 SCRUMPTIOUS NOT TO MENTION SPLENDIFEROUS FUNERAL WITH
 TALL BOYS IN BLACK GLOVES AND FLOWERS AND EVERYTHING AND
 I REMEMBER WE ALL CRIED LIKE THE MISSOURI
 WHEN MY UNCLE SOL'S COFFIN LURCHED BECAUSE
 SOMEBODY PRESSED A BUTTON
 (AND DOWN WENT
 MY UNCLE
 SOL
 AND STARTED A WORM FARM)
           E. E. CUMMINGS
 Job cpu time:  0 days  8 hours 58 minutes 13.6 seconds.
 File lengths (MBytes):  RWF=    858 Int=      0 D2E=      0 Chk=     19 Scr=      1
 Normal termination of Gaussian 09 at Sat Mar 23 00:18:39 2019.
