 Entering Gaussian System, Link 0=g09
 Initial command:
 /home/yuheng/proj/yuheng/g09/l1.exe /home/yuheng/proj/yuheng/g09_scratch/Gau-7479.inp -scrdir=/home/yuheng/proj/yuheng/g09_scratch/
 Entering Link 1 = /home/yuheng/proj/yuheng/g09/l1.exe PID=      7480.
  
 Copyright (c) 1988,1990,1992,1993,1995,1998,2003,2009,2010,
            Gaussian, Inc.  All Rights Reserved.
  
 This is part of the Gaussian(R) 09 program.  It is based on
 the Gaussian(R) 03 system (copyright 2003, Gaussian, Inc.),
 the Gaussian(R) 98 system (copyright 1998, Gaussian, Inc.),
 the Gaussian(R) 94 system (copyright 1995, Gaussian, Inc.),
 the Gaussian 92(TM) system (copyright 1992, Gaussian, Inc.),
 the Gaussian 90(TM) system (copyright 1990, Gaussian, Inc.),
 the Gaussian 88(TM) system (copyright 1988, Gaussian, Inc.),
 the Gaussian 86(TM) system (copyright 1986, Carnegie Mellon
 University), and the Gaussian 82(TM) system (copyright 1983,
 Carnegie Mellon University). Gaussian is a federally registered
 trademark of Gaussian, Inc.
  
 This software contains proprietary and confidential information,
 including trade secrets, belonging to Gaussian, Inc.
  
 This software is provided under written license and may be
 used, copied, transmitted, or stored only in accord with that
 written license.
  
 The following legend is applicable only to US Government
 contracts under FAR:
  
                    RESTRICTED RIGHTS LEGEND
  
 Use, reproduction and disclosure by the US Government is
 subject to restrictions as set forth in subparagraphs (a)
 and (c) of the Commercial Computer Software - Restricted
 Rights clause in FAR 52.227-19.
  
 Gaussian, Inc.
 340 Quinnipiac St., Bldg. 40, Wallingford CT 06492
  
  
 ---------------------------------------------------------------
 Warning -- This program may not be used in any manner that
 competes with the business of Gaussian, Inc. or will provide
 assistance to any competitor of Gaussian, Inc.  The licensee
 of this program is prohibited from giving any competitor of
 Gaussian, Inc. access to this program.  By using this program,
 the user acknowledges that Gaussian, Inc. is engaged in the
 business of creating and licensing software in the field of
 computational chemistry and represents and warrants to the
 licensee that it is not a competitor of Gaussian, Inc. and that
 it will not use this program in any manner prohibited above.
 ---------------------------------------------------------------
  

 Cite this work as:
 Gaussian 09, Revision B.01,
 M. J. Frisch, G. W. Trucks, H. B. Schlegel, G. E. Scuseria, 
 M. A. Robb, J. R. Cheeseman, G. Scalmani, V. Barone, B. Mennucci, 
 G. A. Petersson, H. Nakatsuji, M. Caricato, X. Li, H. P. Hratchian, 
 A. F. Izmaylov, J. Bloino, G. Zheng, J. L. Sonnenberg, M. Hada, 
 M. Ehara, K. Toyota, R. Fukuda, J. Hasegawa, M. Ishida, T. Nakajima, 
 Y. Honda, O. Kitao, H. Nakai, T. Vreven, J. A. Montgomery, Jr., 
 J. E. Peralta, F. Ogliaro, M. Bearpark, J. J. Heyd, E. Brothers, 
 K. N. Kudin, V. N. Staroverov, T. Keith, R. Kobayashi, J. Normand, 
 K. Raghavachari, A. Rendell, J. C. Burant, S. S. Iyengar, J. Tomasi, 
 M. Cossi, N. Rega, J. M. Millam, M. Klene, J. E. Knox, J. B. Cross, 
 V. Bakken, C. Adamo, J. Jaramillo, R. Gomperts, R. E. Stratmann, 
 O. Yazyev, A. J. Austin, R. Cammi, C. Pomelli, J. W. Ochterski, 
 R. L. Martin, K. Morokuma, V. G. Zakrzewski, G. A. Voth, 
 P. Salvador, J. J. Dannenberg, S. Dapprich, A. D. Daniels, 
 O. Farkas, J. B. Foresman, J. V. Ortiz, J. Cioslowski, 
 and D. J. Fox, Gaussian, Inc., Wallingford CT, 2010.
 
 ******************************************
 Gaussian 09:  EM64L-G09RevB.01 12-Aug-2010
                22-Mar-2019 
 ******************************************
 %mem=16gb
 %nprocshared=20
 Will use up to   20 processors via shared memory.
 %chk=1b-conf-15.chk
 ----------------------------------------------------------------------
 # m062x/6-31+G(d,p) opt freq=noraman integral(ultrafinegrid) scrf=(ief
 pcm,read,solvent=methanol)
 ----------------------------------------------------------------------
 1/14=-1,18=20,19=15,26=3,38=1,40=2/1,3;
 2/9=110,12=2,17=6,18=5,40=1/2;
 3/5=1,6=6,7=111,11=2,16=1,25=1,30=1,70=2203,71=1,72=3,74=-55,75=-5/1,2,3;
 4//1;
 5/5=2,38=5,53=3/2;
 6/7=2,8=2,9=2,10=2,28=1/1;
 7//1,2,3,16;
 1/14=-1,18=20,19=15/3(2);
 2/9=110/2;
 99//99;
 2/9=110/2;
 3/5=1,6=6,7=111,11=2,16=1,25=1,30=1,70=2205,71=1,72=3,74=-55,75=-5/1,2,3;
 4/5=5,16=3/1;
 5/5=2,38=5,53=3/2;
 7//1,2,3,16;
 1/14=-1,18=20,19=15/3(-5);
 2/9=110/2;
 6/7=2,8=2,9=2,10=2,19=2,28=1/1;
 99/9=1/99;
 ----------------------------------------------------------------------
 Candidate Structure: 1b, Conformer: 15 geometry optimization and frequ
 ency calculation with methanol solvation
 ----------------------------------------------------------------------
 Symbolic Z-matrix:
 Charge =  0 Multiplicity = 1
 O                    -1.58237   0.16576  -0.88698 
 C                    -1.79957   1.46726  -0.52695 
 C                    -1.11097   2.55935  -1.12605 
 C                    -0.09377   2.36389  -2.1961 
 N                     0.55662   3.31432  -2.73079 
 C                     1.49472   2.75307  -3.67029 
 C                     2.93857   3.0199   -3.16779 
 O                     3.06536   4.42898  -3.20681 
 C                     3.24499   2.54187  -1.72161 
 C                     4.73294   2.32843  -1.44145 
 O                     5.26668   1.34823  -2.21779 
 O                     5.35719   2.93702  -0.57829 
 C                     1.03287   1.29351  -3.83457 
 C                     2.10006   0.19654  -3.98531 
 O                     0.22274   1.12616  -2.68974 
 C                    -1.39947   3.87428  -0.68966 
 C                    -2.35121   4.10335   0.32036 
 Cl                   -2.68829   5.71389   0.83803 
 C                    -3.02781   3.02001   0.90824 
 C                    -2.75128   1.70714   0.48438 
 H                    -0.93763   0.07562  -1.57879 
 H                     1.37871   3.24196  -4.6405 
 H                     3.65129   2.59272  -3.87537 
 H                     2.23536   4.76397  -2.88374 
 H                     2.75052   1.59643  -1.50946 
 H                     2.84175   3.24389  -0.99079 
 H                     6.17985   1.24791  -1.99531 
 H                     0.36873   1.23798  -4.69958 
 H                     2.74699   0.10719  -3.11536 
 H                     1.62793  -0.77487  -4.13257 
 H                     2.73227   0.38563  -4.85315 
 H                    -0.89169   4.72111  -1.12804 
 H                    -3.75857   3.19616   1.68391 
 H                    -3.27356   0.87764   0.93895 
 

 GradGradGradGradGradGradGradGradGradGradGradGradGradGradGradGradGradGrad
 Berny optimization.
 Initialization pass.
                           ----------------------------
                           !    Initial Parameters    !
                           ! (Angstroms and Degrees)  !
 --------------------------                            --------------------------
 ! Name  Definition              Value          Derivative Info.                !
 --------------------------------------------------------------------------------
 ! R1    R(1,2)                  1.3677         estimate D2E/DX2                !
 ! R2    R(1,21)                 0.95           estimate D2E/DX2                !
 ! R3    R(2,3)                  1.4233         estimate D2E/DX2                !
 ! R4    R(2,20)                 1.4093         estimate D2E/DX2                !
 ! R5    R(3,4)                  1.4893         estimate D2E/DX2                !
 ! R6    R(3,16)                 1.4152         estimate D2E/DX2                !
 ! R7    R(4,5)                  1.2697         estimate D2E/DX2                !
 ! R8    R(4,15)                 1.3696         estimate D2E/DX2                !
 ! R9    R(5,6)                  1.4414         estimate D2E/DX2                !
 ! R10   R(6,7)                  1.5519         estimate D2E/DX2                !
 ! R11   R(6,13)                 1.5397         estimate D2E/DX2                !
 ! R12   R(6,22)                 1.0926         estimate D2E/DX2                !
 ! R13   R(7,8)                  1.4153         estimate D2E/DX2                !
 ! R14   R(7,9)                  1.5537         estimate D2E/DX2                !
 ! R15   R(7,23)                 1.0914         estimate D2E/DX2                !
 ! R16   R(8,24)                 0.9516         estimate D2E/DX2                !
 ! R17   R(9,10)                 1.5291         estimate D2E/DX2                !
 ! R18   R(9,25)                 1.0878         estimate D2E/DX2                !
 ! R19   R(9,26)                 1.0907         estimate D2E/DX2                !
 ! R20   R(10,11)                1.3595         estimate D2E/DX2                !
 ! R21   R(10,12)                1.2268         estimate D2E/DX2                !
 ! R22   R(11,27)                0.9452         estimate D2E/DX2                !
 ! R23   R(13,14)                1.5378         estimate D2E/DX2                !
 ! R24   R(13,15)                1.4124         estimate D2E/DX2                !
 ! R25   R(13,28)                1.092          estimate D2E/DX2                !
 ! R26   R(14,29)                1.0878         estimate D2E/DX2                !
 ! R27   R(14,30)                1.0901         estimate D2E/DX2                !
 ! R28   R(14,31)                1.0902         estimate D2E/DX2                !
 ! R29   R(15,21)                1.9195         estimate D2E/DX2                !
 ! R30   R(16,17)                1.4066         estimate D2E/DX2                !
 ! R31   R(16,32)                1.0803         estimate D2E/DX2                !
 ! R32   R(17,18)                1.7249         estimate D2E/DX2                !
 ! R33   R(17,19)                1.4061         estimate D2E/DX2                !
 ! R34   R(19,20)                1.407          estimate D2E/DX2                !
 ! R35   R(19,33)                1.0801         estimate D2E/DX2                !
 ! R36   R(20,34)                1.0805         estimate D2E/DX2                !
 ! A1    A(2,1,21)             112.9405         estimate D2E/DX2                !
 ! A2    A(1,2,3)              122.8549         estimate D2E/DX2                !
 ! A3    A(1,2,20)             117.2654         estimate D2E/DX2                !
 ! A4    A(3,2,20)             119.8797         estimate D2E/DX2                !
 ! A5    A(2,3,4)              122.1531         estimate D2E/DX2                !
 ! A6    A(2,3,16)             118.9815         estimate D2E/DX2                !
 ! A7    A(4,3,16)             118.8653         estimate D2E/DX2                !
 ! A8    A(3,4,5)              123.655          estimate D2E/DX2                !
 ! A9    A(3,4,15)             122.3725         estimate D2E/DX2                !
 ! A10   A(5,4,15)             113.9725         estimate D2E/DX2                !
 ! A11   A(4,5,6)              108.4445         estimate D2E/DX2                !
 ! A12   A(5,6,7)              109.1175         estimate D2E/DX2                !
 ! A13   A(5,6,13)             104.0892         estimate D2E/DX2                !
 ! A14   A(5,6,22)             109.5995         estimate D2E/DX2                !
 ! A15   A(7,6,13)             118.4646         estimate D2E/DX2                !
 ! A16   A(7,6,22)             108.0217         estimate D2E/DX2                !
 ! A17   A(13,6,22)            107.3123         estimate D2E/DX2                !
 ! A18   A(6,7,8)              104.2175         estimate D2E/DX2                !
 ! A19   A(6,7,9)              115.5939         estimate D2E/DX2                !
 ! A20   A(6,7,23)             109.2897         estimate D2E/DX2                !
 ! A21   A(8,7,9)              108.3195         estimate D2E/DX2                !
 ! A22   A(8,7,23)             108.2591         estimate D2E/DX2                !
 ! A23   A(9,7,23)             110.7479         estimate D2E/DX2                !
 ! A24   A(7,8,24)             105.2474         estimate D2E/DX2                !
 ! A25   A(7,9,10)             113.9174         estimate D2E/DX2                !
 ! A26   A(7,9,25)             111.0564         estimate D2E/DX2                !
 ! A27   A(7,9,26)             110.6563         estimate D2E/DX2                !
 ! A28   A(10,9,25)            106.5755         estimate D2E/DX2                !
 ! A29   A(10,9,26)            109.0782         estimate D2E/DX2                !
 ! A30   A(25,9,26)            105.1104         estimate D2E/DX2                !
 ! A31   A(9,10,11)            112.2127         estimate D2E/DX2                !
 ! A32   A(9,10,12)            123.6975         estimate D2E/DX2                !
 ! A33   A(11,10,12)           124.0317         estimate D2E/DX2                !
 ! A34   A(10,11,27)           108.7475         estimate D2E/DX2                !
 ! A35   A(6,13,14)            118.5875         estimate D2E/DX2                !
 ! A36   A(6,13,15)            101.4133         estimate D2E/DX2                !
 ! A37   A(6,13,28)            108.3709         estimate D2E/DX2                !
 ! A38   A(14,13,15)           113.1391         estimate D2E/DX2                !
 ! A39   A(14,13,28)           107.9476         estimate D2E/DX2                !
 ! A40   A(15,13,28)           106.6898         estimate D2E/DX2                !
 ! A41   A(13,14,29)           113.1355         estimate D2E/DX2                !
 ! A42   A(13,14,30)           110.3867         estimate D2E/DX2                !
 ! A43   A(13,14,31)           110.8992         estimate D2E/DX2                !
 ! A44   A(29,14,30)           107.0035         estimate D2E/DX2                !
 ! A45   A(29,14,31)           107.8168         estimate D2E/DX2                !
 ! A46   A(30,14,31)           107.3483         estimate D2E/DX2                !
 ! A47   A(4,15,13)            108.5188         estimate D2E/DX2                !
 ! A48   A(3,16,17)            120.7097         estimate D2E/DX2                !
 ! A49   A(3,16,32)            120.49           estimate D2E/DX2                !
 ! A50   A(17,16,32)           118.8003         estimate D2E/DX2                !
 ! A51   A(16,17,18)           119.9856         estimate D2E/DX2                !
 ! A52   A(16,17,19)           120.0235         estimate D2E/DX2                !
 ! A53   A(18,17,19)           119.9908         estimate D2E/DX2                !
 ! A54   A(17,19,20)           119.8934         estimate D2E/DX2                !
 ! A55   A(17,19,33)           120.0104         estimate D2E/DX2                !
 ! A56   A(20,19,33)           120.0962         estimate D2E/DX2                !
 ! A57   A(2,20,19)            120.5122         estimate D2E/DX2                !
 ! A58   A(2,20,34)            119.8451         estimate D2E/DX2                !
 ! A59   A(19,20,34)           119.6427         estimate D2E/DX2                !
 ! D1    D(21,1,2,3)            -0.6904         estimate D2E/DX2                !
 ! D2    D(21,1,2,20)          179.3567         estimate D2E/DX2                !
 ! D3    D(1,2,3,4)             -0.0924         estimate D2E/DX2                !
 ! D4    D(1,2,3,16)          -179.9625         estimate D2E/DX2                !
 ! D5    D(20,2,3,4)           179.8593         estimate D2E/DX2                !
 ! D6    D(20,2,3,16)           -0.0108         estimate D2E/DX2                !
 ! D7    D(1,2,20,19)          179.9626         estimate D2E/DX2                !
 ! D8    D(1,2,20,34)           -0.0328         estimate D2E/DX2                !
 ! D9    D(3,2,20,19)            0.0082         estimate D2E/DX2                !
 ! D10   D(3,2,20,34)         -179.9872         estimate D2E/DX2                !
 ! D11   D(2,3,4,5)           -178.5149         estimate D2E/DX2                !
 ! D12   D(2,3,4,15)             1.3846         estimate D2E/DX2                !
 ! D13   D(16,3,4,5)             1.3553         estimate D2E/DX2                !
 ! D14   D(16,3,4,15)         -178.7452         estimate D2E/DX2                !
 ! D15   D(2,3,16,17)            0.0044         estimate D2E/DX2                !
 ! D16   D(2,3,16,32)         -179.96           estimate D2E/DX2                !
 ! D17   D(4,3,16,17)         -179.87           estimate D2E/DX2                !
 ! D18   D(4,3,16,32)            0.1657         estimate D2E/DX2                !
 ! D19   D(3,4,5,6)            177.0779         estimate D2E/DX2                !
 ! D20   D(15,4,5,6)            -2.8292         estimate D2E/DX2                !
 ! D21   D(3,4,15,13)          169.9384         estimate D2E/DX2                !
 ! D22   D(5,4,15,13)          -10.1532         estimate D2E/DX2                !
 ! D23   D(4,5,6,7)           -114.051          estimate D2E/DX2                !
 ! D24   D(4,5,6,13)            13.3275         estimate D2E/DX2                !
 ! D25   D(4,5,6,22)           127.8499         estimate D2E/DX2                !
 ! D26   D(5,6,7,8)            -64.6723         estimate D2E/DX2                !
 ! D27   D(5,6,7,9)             54.0708         estimate D2E/DX2                !
 ! D28   D(5,6,7,23)           179.7894         estimate D2E/DX2                !
 ! D29   D(13,6,7,8)           176.5773         estimate D2E/DX2                !
 ! D30   D(13,6,7,9)           -64.6796         estimate D2E/DX2                !
 ! D31   D(13,6,7,23)           61.039          estimate D2E/DX2                !
 ! D32   D(22,6,7,8)            54.4129         estimate D2E/DX2                !
 ! D33   D(22,6,7,9)           173.1561         estimate D2E/DX2                !
 ! D34   D(22,6,7,23)          -61.1254         estimate D2E/DX2                !
 ! D35   D(5,6,13,14)         -142.6225         estimate D2E/DX2                !
 ! D36   D(5,6,13,15)          -18.1117         estimate D2E/DX2                !
 ! D37   D(5,6,13,28)           93.9595         estimate D2E/DX2                !
 ! D38   D(7,6,13,14)          -21.2789         estimate D2E/DX2                !
 ! D39   D(7,6,13,15)          103.2319         estimate D2E/DX2                !
 ! D40   D(7,6,13,28)         -144.6969         estimate D2E/DX2                !
 ! D41   D(22,6,13,14)         101.2423         estimate D2E/DX2                !
 ! D42   D(22,6,13,15)        -134.2469         estimate D2E/DX2                !
 ! D43   D(22,6,13,28)         -22.1757         estimate D2E/DX2                !
 ! D44   D(6,7,8,24)            41.0185         estimate D2E/DX2                !
 ! D45   D(9,7,8,24)           -82.5766         estimate D2E/DX2                !
 ! D46   D(23,7,8,24)          157.2783         estimate D2E/DX2                !
 ! D47   D(6,7,9,10)           158.2129         estimate D2E/DX2                !
 ! D48   D(6,7,9,25)            37.8714         estimate D2E/DX2                !
 ! D49   D(6,7,9,26)           -78.4664         estimate D2E/DX2                !
 ! D50   D(8,7,9,10)           -85.3347         estimate D2E/DX2                !
 ! D51   D(8,7,9,25)           154.3239         estimate D2E/DX2                !
 ! D52   D(8,7,9,26)            37.9861         estimate D2E/DX2                !
 ! D53   D(23,7,9,10)           33.2434         estimate D2E/DX2                !
 ! D54   D(23,7,9,25)          -87.098          estimate D2E/DX2                !
 ! D55   D(23,7,9,26)          156.5642         estimate D2E/DX2                !
 ! D56   D(7,9,10,11)          -62.8992         estimate D2E/DX2                !
 ! D57   D(7,9,10,12)          119.7765         estimate D2E/DX2                !
 ! D58   D(25,9,10,11)          59.9264         estimate D2E/DX2                !
 ! D59   D(25,9,10,12)        -117.3978         estimate D2E/DX2                !
 ! D60   D(26,9,10,11)         172.9265         estimate D2E/DX2                !
 ! D61   D(26,9,10,12)          -4.3978         estimate D2E/DX2                !
 ! D62   D(9,10,11,27)        -179.0704         estimate D2E/DX2                !
 ! D63   D(12,10,11,27)         -1.7567         estimate D2E/DX2                !
 ! D64   D(6,13,14,29)          62.4188         estimate D2E/DX2                !
 ! D65   D(6,13,14,30)        -177.7107         estimate D2E/DX2                !
 ! D66   D(6,13,14,31)         -58.8676         estimate D2E/DX2                !
 ! D67   D(15,13,14,29)        -56.1327         estimate D2E/DX2                !
 ! D68   D(15,13,14,30)         63.7377         estimate D2E/DX2                !
 ! D69   D(15,13,14,31)       -177.4191         estimate D2E/DX2                !
 ! D70   D(28,13,14,29)       -173.9536         estimate D2E/DX2                !
 ! D71   D(28,13,14,30)        -54.0831         estimate D2E/DX2                !
 ! D72   D(28,13,14,31)         64.76           estimate D2E/DX2                !
 ! D73   D(6,13,15,4)           17.0386         estimate D2E/DX2                !
 ! D74   D(14,13,15,4)         145.1455         estimate D2E/DX2                !
 ! D75   D(28,13,15,4)         -96.3018         estimate D2E/DX2                !
 ! D76   D(3,16,17,18)         179.9992         estimate D2E/DX2                !
 ! D77   D(3,16,17,19)           0.0048         estimate D2E/DX2                !
 ! D78   D(32,16,17,18)         -0.0359         estimate D2E/DX2                !
 ! D79   D(32,16,17,19)        179.9697         estimate D2E/DX2                !
 ! D80   D(16,17,19,20)         -0.0075         estimate D2E/DX2                !
 ! D81   D(16,17,19,33)        179.9941         estimate D2E/DX2                !
 ! D82   D(18,17,19,20)        179.9981         estimate D2E/DX2                !
 ! D83   D(18,17,19,33)         -0.0003         estimate D2E/DX2                !
 ! D84   D(17,19,20,2)           0.001          estimate D2E/DX2                !
 ! D85   D(17,19,20,34)        179.9964         estimate D2E/DX2                !
 ! D86   D(33,19,20,2)         179.9994         estimate D2E/DX2                !
 ! D87   D(33,19,20,34)         -0.0052         estimate D2E/DX2                !
 --------------------------------------------------------------------------------
 Trust Radius=3.00D-01 FncErr=1.00D-07 GrdErr=1.00D-06
 Number of steps in this run=    192 maximum allowed number of steps=    204.
 GradGradGradGradGradGradGradGradGradGradGradGradGradGradGradGradGradGrad

                          Input orientation:                          
 ---------------------------------------------------------------------
 Center     Atomic      Atomic             Coordinates (Angstroms)
 Number     Number       Type             X           Y           Z
 ---------------------------------------------------------------------
      1          8           0       -1.582374    0.165764   -0.886982
      2          6           0       -1.799567    1.467260   -0.526945
      3          6           0       -1.110973    2.559353   -1.126046
      4          6           0       -0.093771    2.363891   -2.196100
      5          7           0        0.556621    3.314315   -2.730791
      6          6           0        1.494720    2.753070   -3.670292
      7          6           0        2.938569    3.019901   -3.167790
      8          8           0        3.065361    4.428981   -3.206805
      9          6           0        3.244990    2.541873   -1.721611
     10          6           0        4.732943    2.328433   -1.441452
     11          8           0        5.266684    1.348233   -2.217787
     12          8           0        5.357185    2.937022   -0.578289
     13          6           0        1.032874    1.293508   -3.834571
     14          6           0        2.100056    0.196543   -3.985306
     15          8           0        0.222741    1.126161   -2.689742
     16          6           0       -1.399466    3.874284   -0.689657
     17          6           0       -2.351209    4.103351    0.320363
     18         17           0       -2.688293    5.713885    0.838034
     19          6           0       -3.027813    3.020013    0.908240
     20          6           0       -2.751284    1.707141    0.484378
     21          1           0       -0.937625    0.075622   -1.578793
     22          1           0        1.378707    3.241963   -4.640497
     23          1           0        3.651289    2.592718   -3.875370
     24          1           0        2.235359    4.763970   -2.883743
     25          1           0        2.750515    1.596428   -1.509464
     26          1           0        2.841748    3.243889   -0.990790
     27          1           0        6.179848    1.247908   -1.995312
     28          1           0        0.368727    1.237976   -4.699576
     29          1           0        2.746991    0.107193   -3.115356
     30          1           0        1.627929   -0.774867   -4.132574
     31          1           0        2.732272    0.385629   -4.853149
     32          1           0       -0.891693    4.721107   -1.128035
     33          1           0       -3.758573    3.196157    1.683912
     34          1           0       -3.273560    0.877638    0.938954
 ---------------------------------------------------------------------
                    Distance matrix (angstroms):
                    1          2          3          4          5
     1  O    0.000000
     2  C    1.367732   0.000000
     3  C    2.451252   1.423289   0.000000
     4  C    2.959982   2.549464   1.489269   0.000000
     5  N    4.229457   3.717549   2.434347   1.269728   0.000000
     6  C    4.889732   4.731413   3.646964   2.201819   1.441419
     7  C    5.812668   5.642224   4.558466   3.251095   2.439534
     8  O    6.719973   6.294519   5.026612   3.907203   2.786188
     9  C    5.444809   5.294296   4.396523   3.377002   2.973624
    10  C    6.698343   6.652190   5.856975   4.885480   4.480628
    11  O    7.076643   7.266706   6.582797   5.455869   5.129653
    12  O    7.478813   7.306294   6.502287   5.714780   5.274564
    13  C    4.098733   4.358131   3.678933   2.258237   2.351342
    14  C    4.812572   5.364890   4.906011   3.565324   3.698175
    15  O    2.725940   2.980565   2.505589   1.369612   2.213861
    16  C    3.718267   2.445469   1.415170   2.501099   2.882025
    17  C    4.189675   2.823334   2.452389   3.801886   4.288076
    18  Cl   5.914422   4.548277   4.036907   5.211523   5.387385
    19  C    3.668631   2.445278   2.832808   4.321577   5.116378
    20  C    2.371249   1.409284   2.451602   3.831274   4.884931
    21  H    0.949963   1.945761   2.530603   2.515816   3.748200
    22  H    5.685057   5.492932   4.360714   2.985679   2.080394
    23  H    6.497061   6.495417   5.499003   4.110691   3.377534
    24  H    6.301241   5.718691   4.375817   3.414393   2.223298
    25  H    4.605237   4.656745   3.998165   3.024968   3.042359
    26  H    5.390592   4.991329   4.013837   3.293090   2.873042
    27  H    7.915271   8.116359   7.458658   6.375267   6.035864
    28  H    4.415009   4.707963   4.087257   2.783699   2.867508
    29  H    4.869546   5.405631   4.985412   3.742679   3.902722
    30  H    4.660976   5.456686   5.259070   4.070133   4.453550
    31  H    5.864724   6.357950   5.778140   4.354302   4.220789
    32  H    4.613707   3.431190   2.172848   2.708119   2.577888
    33  H    4.530852   3.422671   3.912949   5.401660   6.174501
    34  H    2.588613   2.160826   3.430623   4.706227   5.837355
                    6          7          8          9         10
     6  C    0.000000
     7  C    1.551904   0.000000
     8  O    2.343163   1.415311   0.000000
     9  C    2.627814   1.553653   2.408162   0.000000
    10  C    3.954002   2.584211   3.210857   1.529068   0.000000
    11  O    4.279141   3.019453   3.913437   2.399628   1.359547
    12  O    4.951056   3.544304   3.793085   2.434070   1.226829
    13  C    1.539679   2.656446   3.788969   3.304009   4.526433
    14  C    2.646034   3.056597   4.410375   3.454817   4.236537
    15  O    2.286097   3.345221   4.388219   3.474983   4.831729
    16  C    4.303210   5.068497   5.155425   4.940771   6.368775
    17  C    5.704363   6.428283   6.471953   6.158353   7.512625
    18  Cl   6.825615   7.413889   7.149562   7.198423   8.469480
    19  C    6.441081   7.225769   7.486358   6.818562   8.138100
    20  C    6.031899   6.887387   7.407199   6.443483   7.752966
    21  H    4.178444   5.120407   6.134008   4.857680   6.103225
    22  H    1.092599   2.156698   2.511829   3.534549   4.724333
    23  H    2.172225   1.091387   2.040135   2.192337   2.676524
    24  H    2.282745   1.901832   0.951572   2.703261   3.774913
    25  H    2.753910   2.193555   3.317145   1.087832   2.114350
    26  H    3.038934   2.190633   2.522929   1.090656   2.148901
    27  H    5.198220   3.875636   4.613780   3.219107   1.888870
    28  H    2.150069   3.482199   4.436520   4.340658   5.554354
    29  H    2.979396   2.919472   4.334464   2.849245   3.417582
    30  H    3.560588   4.129025   5.477526   4.407765   5.149148
    31  H    2.921551   3.134068   4.378366   3.836509   4.406455
    32  H    4.003899   4.661074   4.479386   4.713124   6.120429
    33  H    7.514048   8.271746   8.485579   7.815086   9.089922
    34  H    6.891944   7.748883   8.365481   7.234624   8.477926
                   11         12         13         14         15
    11  O    0.000000
    12  O    2.284818   0.000000
    13  C    4.532343   5.657223   0.000000
    14  C    3.805003   5.452236   1.537833   0.000000
    15  O    5.070840   5.839518   1.412428   2.463126   0.000000
    16  C    7.290656   6.822257   4.739954   6.052581   3.766175
    17  C    8.489121   7.847754   6.050679   7.322274   4.954756
    18  Cl   9.574895   8.628248   7.431020   8.754082   6.478158
    19  C    9.020287   8.516152   6.477982   7.629798   5.205598
    20  C    8.468667   8.269773   5.757106   6.767236   4.388325
    21  H    6.365634   6.986648   3.233365   3.877297   1.919450
    22  H    4.957026   5.694103   2.136725   3.197531   3.101342
    23  H    2.627894   3.728186   2.923304   2.856583   3.912984
    24  H    4.615158   4.289365   3.793962   4.700334   4.161961
    25  H    2.625724   3.075550   2.906574   2.917631   2.829107
    26  H    3.313510   2.567440   3.893983   4.336306   3.772321
    27  H    0.945214   2.353260   5.465921   4.659415   5.998681
    28  H    5.491941   6.690028   1.091975   2.142957   2.018229
    29  H    2.948671   4.610613   2.205178   1.087806   2.755228
    30  H    4.627580   6.349678   2.172803   1.090059   2.769517
    31  H    3.780871   5.627984   2.179380   1.090230   3.395065
    32  H    7.105593   6.521783   4.772602   6.130762   4.074865
    33  H   10.004666   9.395837   7.551933   8.686844   6.266147
    34  H    9.117140   9.001825   6.442427   7.320381   5.045128
                   16         17         18         19         20
    16  C    0.000000
    17  C    1.406566   0.000000
    18  Cl   2.716440   1.724943   0.000000
    19  C    2.436097   1.406063   2.716091   0.000000
    20  C    2.811099   2.434909   4.022815   1.407040   0.000000
    21  H    3.928574   4.672003   6.379334   4.384479   3.194979
    22  H    4.871059   6.266131   7.257079   7.089088   6.758465
    23  H    6.107479   7.477712   8.494007   8.226537   7.796447
    24  H    4.337915   5.633766   6.244703   6.717254   6.749448
    25  H    4.804483   5.971643   7.214210   6.423470   5.852987
    26  H    4.298369   5.424445   6.326676   6.173182   5.984958
    27  H    8.127028   9.289502  10.325538   9.815905   9.280349
    28  H    5.114301   6.388131   7.748823   6.794096   6.068605
    29  H    6.104760   7.332468   8.752520   7.617231   6.763797
    30  H    6.529426   7.710979   9.243409   7.841355   6.830382
    31  H    6.824708   8.150366   9.495388   8.562252   7.765628
    32  H    1.080332   2.147013   2.842324   3.406339   3.891265
    33  H    3.414538   2.159384   2.863558   1.080141   2.161176
    34  H    3.891592   3.411541   4.872577   2.156642   1.080503
                   21         22         23         24         25
    21  H    0.000000
    22  H    4.976459   0.000000
    23  H    5.715608   2.484264   0.000000
    24  H    5.809589   2.477205   2.775341   0.000000
    25  H    3.989992   3.793812   2.720570   3.491039   0.000000
    26  H    4.966621   3.932029   3.065972   2.502324   1.729588
    27  H    7.225383   5.833028   3.425893   5.358264   3.481069
    28  H    3.577277   2.244886   3.645525   4.383400   3.997276
    29  H    3.992295   3.745002   2.751947   4.690521   2.190142
    30  H    3.718494   4.056479   3.937102   5.710277   3.709979
    31  H    4.928048   3.167965   2.582999   4.826526   3.556205
    32  H    4.667529   4.436211   5.719840   3.586475   4.814020
    33  H    5.323601   8.148122   9.283093   7.697320   7.424622
    34  H    3.526878   7.639627   8.606553   7.750147   6.542239
                   26         27         28         29         30
    26  H    0.000000
    27  H    4.016954   0.000000
    28  H    4.888212   6.409545   0.000000
    29  H    3.789673   3.786850   3.073201   0.000000
    30  H    5.243526   5.420284   2.441028   1.750732   0.000000
    31  H    4.806189   4.560322   2.517226   1.760019   1.756574
    32  H    4.017411   7.926031   5.145558   6.203037   6.751406
    33  H    7.121836  10.775183   7.849713   8.654307   8.866507
    34  H    6.835206   9.905248   6.722285   7.299181   7.244016
                   31         32         33         34
    31  H    0.000000
    32  H    6.768010   0.000000
    33  H    9.631371   4.295523   0.000000
    34  H    8.358262   4.971719   2.483089   0.000000
 Stoichiometry    C13H14ClNO5
 Framework group  C1[X(C13H14ClNO5)]
 Deg. of freedom    96
 Full point group                 C1      NOp   1
 Largest Abelian subgroup         C1      NOp   1
 Largest concise Abelian subgroup C1      NOp   1
                         Standard orientation:                         
 ---------------------------------------------------------------------
 Center     Atomic      Atomic             Coordinates (Angstroms)
 Number     Number       Type             X           Y           Z
 ---------------------------------------------------------------------
      1          8           0        1.627679    2.713328    1.153350
      2          6           0        2.259030    1.561796    0.771171
      3          6           0        1.649468    0.590132   -0.071476
      4          6           0        0.267713    0.755886   -0.601757
      5          7           0       -0.313431   -0.104518   -1.332639
      6          6           0       -1.653738    0.354063   -1.599039
      7          6           0       -2.664612   -0.610628   -0.923827
      8          8           0       -2.476835   -1.839774   -1.599878
      9          6           0       -2.450013   -0.851457    0.595971
     10          6           0       -3.698669   -1.344672    1.327851
     11          8           0       -4.708495   -0.435102    1.291761
     12          8           0       -3.760435   -2.415912    1.922611
     13          6           0       -1.639898    1.829045   -1.157623
     14          6           0       -2.891168    2.404048   -0.473062
     15          8           0       -0.491916    1.863999   -0.335510
     16          6           0        2.378165   -0.573286   -0.415232
     17          6           0        3.684972   -0.770754    0.066109
     18         17           0        4.556210   -2.195818   -0.364665
     19          6           0        4.281294    0.192981    0.898352
     20          6           0        3.568772    1.354673    1.248411
     21          1           0        0.753867    2.794731    0.789680
     22          1           0       -1.839187    0.338610   -2.675674
     23          1           0       -3.680540   -0.263829   -1.120665
     24          1           0       -1.535463   -1.922851   -1.711264
     25          1           0       -2.137802    0.062647    1.096286
     26          1           0       -1.636587   -1.558694    0.762355
     27          1           0       -5.447214   -0.782254    1.768425
     28          1           0       -1.419624    2.447390   -2.030284
     29          1           0       -3.126675    1.913348    0.468783
     30          1           0       -2.751837    3.462891   -0.254733
     31          1           0       -3.763448    2.317839   -1.121366
     32          1           0        1.939371   -1.326232   -1.053707
     33          1           0        5.284804    0.041078    1.267943
     34          1           0        4.030911    2.092590    1.888249
 ---------------------------------------------------------------------
 Rotational constants (GHZ):      0.4613008      0.1624396      0.1429270
 Standard basis: 6-31+G(d,p) (6D, 7F)
 There are   454 symmetry adapted basis functions of A   symmetry.
 Integral buffers will be    131072 words long.
 Raffenetti 2 integral format.
 Two-electron integral symmetry is turned on.
   454 basis functions,   762 primitive gaussians,   454 cartesian basis functions
    78 alpha electrons       78 beta electrons
       nuclear repulsion energy      1686.9897128856 Hartrees.
 NAtoms=   34 NActive=   34 NUniq=   34 SFac= 1.00D+00 NAtFMM=   50 NAOKFM=F Big=F
 Using the following non-standard input for PCM:
 radii=UA0
 --- end of non-standard input.
 ------------------------------------------------------------------------------
 United Atom Topological Model (UA0  parameters set).
  Nord Group  Hybr  Charge Alpha Radius          Bonded to
    1   OH    *     0.00   1.10  1.850   C2   [s]
    2   C     *     0.00   1.10  1.925   O1   [s]  C3   [s]  C20  [s]
    3   C     *     0.00   1.10  1.925   C2   [s]  C4   [s]  C16  [s]
    4   C     *     0.00   1.10  1.925   C3   [s]  N5   [d]  O15  [s]
    5   N     *     0.00   1.10  1.830   C4   [d]  C6   [s]
    6   CH    *     0.00   1.10  2.125   N5   [s]  C7   [s]  C13  [s]
    7   CH    *     0.00   1.10  2.125   C6   [s]  O8   [s]  C9   [s]
    8   OH    *     0.00   1.10  1.850   C7   [s]
    9   CH2   *     0.00   1.10  2.325   C7   [s]  C10  [s]
   10   C     *     0.00   1.10  1.925   C9   [s]  O11  [s]  O12  [d]
   11   OH    *     0.00   1.10  1.850   C10  [s]
   12   O     *     0.00   1.10  1.750   C10  [d]
   13   CH    *     0.00   1.10  2.125   C6   [s]  C14  [s]  O15  [s]
   14   CH3   *     0.00   1.10  2.525   C13  [s]
   15   O     *     0.00   1.10  1.750   C4   [s]  C13  [s]
   16   CH    *     0.00   1.10  2.125   C3   [s]  C17  [s]
   17   C     *     0.00   1.10  1.925   C16  [s] Cl18  [s]  C19  [s]
   18  Cl     *     0.00   1.10  1.973   C17  [s]
   19   CH    *     0.00   1.10  2.125   C17  [s]  C20  [s]
   20   CH    *     0.00   1.10  2.125   C2   [s]  C19  [s]
 ------------------------------------------------------------------------------
 Polarizable Continuum Model (PCM)
 =================================
 Model                : PCM.
 Atomic radii         : UA0 (Simple United Atom Topological Model).
 Polarization charges : Total charges.
 Charge compensation  : None.
 Solution method      : Matrix inversion.
 Cavity type          : Scaled VdW (van der Waals Surface) (Alpha=1.100).
 Cavity algorithm     : GePol (No added spheres)
                        Default sphere list used, NSphG=   20.
                        Lebedev-Laikov grids with approx.  5.0 points / Ang**2.
                        Smoothing algorithm: Karplus/York (Gamma=1.0000).
                        Polarization charges: spherical gaussians, with
                                              point-specific exponents (IZeta= 3).
                        Self-potential: point-specific (ISelfS= 7).
                        Self-field    : sphere-specific E.n sum rule (ISelfD= 2).
 1st derivatives      : Analytical E(r).r(x)/FMM algorithm (CHGder, D1EAlg=3).
                        Cavity 1st derivative terms included.
 Solvent              : Methanol, Eps=  32.613000 Eps(inf)=   1.765709
 ------------------------------------------------------------------------------
 Spheres list:
 ISph  on   Nord    Re0     Alpha      Xe            Ye            Ze
    1   O      1    1.850   1.100      1.627679      2.713328      1.153350
    2   C      2    1.925   1.100      2.259030      1.561796      0.771171
    3   C      3    1.925   1.100      1.649468      0.590132     -0.071476
    4   C      4    1.925   1.100      0.267713      0.755886     -0.601757
    5   N      5    1.830   1.100     -0.313431     -0.104518     -1.332639
    6   C      6    2.125   1.100     -1.653738      0.354063     -1.599039
    7   C      7    2.125   1.100     -2.664612     -0.610628     -0.923827
    8   O      8    1.850   1.100     -2.476835     -1.839774     -1.599878
    9   C      9    2.325   1.100     -2.450013     -0.851457      0.595971
   10   C     10    1.925   1.100     -3.698669     -1.344672      1.327851
   11   O     11    1.850   1.100     -4.708495     -0.435102      1.291761
   12   O     12    1.750   1.100     -3.760435     -2.415912      1.922611
   13   C     13    2.125   1.100     -1.639898      1.829045     -1.157623
   14   C     14    2.525   1.100     -2.891168      2.404048     -0.473062
   15   O     15    1.750   1.100     -0.491916      1.863999     -0.335510
   16   C     16    2.125   1.100      2.378165     -0.573286     -0.415232
   17   C     17    1.925   1.100      3.684972     -0.770754      0.066109
   18  Cl     18    1.973   1.100      4.556210     -2.195818     -0.364665
   19   C     19    2.125   1.100      4.281294      0.192981      0.898352
   20   C     20    2.125   1.100      3.568772      1.354673      1.248411
 ------------------------------------------------------------------------------
 One-electron integrals computed using PRISM.
 NBasis=   454 RedAO= T  NBF=   454
 NBsUse=   453 1.00D-06 NBFU=   453
 Harris functional with IExCor= 1009 diagonalized for initial guess.
 ExpMin= 4.38D-02 ExpMax= 2.52D+04 ExpMxC= 3.78D+03 IAcc=3 IRadAn=         5 AccDes= 0.00D+00
 HarFok:  IExCor= 1009 AccDes= 0.00D+00 IRadAn=         5 IDoV= 1
 ScaDFX=  1.000000  1.000000  1.000000  1.000000
 FoFCou: FMM=F IPFlag=           0 FMFlag=      100000 FMFlg1=           0
         NFxFlg=           0 DoJE=T BraDBF=F KetDBF=T FulRan=T
         Omega=  0.000000  0.000000  1.000000  0.000000  0.000000 ICntrl=     500 IOpCl=  0
         NMat0=    1 NMatS0=    1 NMatT0=    0 NMatD0=    1 NMtDS0=    0 NMtDT0=    0
         I1Cent=           4 NGrid=           0.
 Petite list used in FoFCou.
 Initial guess orbital symmetries:
       Occupied  (A) (A) (A) (A) (A) (A) (A) (A) (A) (A) (A) (A)
                 (A) (A) (A) (A) (A) (A) (A) (A) (A) (A) (A) (A)
                 (A) (A) (A) (A) (A) (A) (A) (A) (A) (A) (A) (A)
                 (A) (A) (A) (A) (A) (A) (A) (A) (A) (A) (A) (A)
                 (A) (A) (A) (A) (A) (A) (A) (A) (A) (A) (A) (A)
                 (A) (A) (A) (A) (A) (A) (A) (A) (A) (A) (A) (A)
                 (A) (A) (A) (A) (A) (A)
       Virtual   (A) (A) (A) (A) (A) (A) (A) (A) (A) (A) (A) (A)
                 (A) (A) (A) (A) (A) (A) (A) (A) (A) (A) (A) (A)
                 (A) (A) (A) (A) (A) (A) (A) (A) (A) (A) (A) (A)
                 (A) (A) (A) (A) (A) (A) (A) (A) (A) (A) (A) (A)
                 (A) (A) (A) (A) (A) (A) (A) (A) (A) (A) (A) (A)
                 (A) (A) (A) (A) (A) (A) (A) (A) (A) (A) (A) (A)
                 (A) (A) (A) (A) (A) (A) (A) (A) (A) (A) (A) (A)
                 (A) (A) (A) (A) (A) (A) (A) (A) (A) (A) (A) (A)
                 (A) (A) (A) (A) (A) (A) (A) (A) (A) (A) (A) (A)
                 (A) (A) (A) (A) (A) (A) (A) (A) (A) (A) (A) (A)
                 (A) (A) (A) (A) (A) (A) (A) (A) (A) (A) (A) (A)
                 (A) (A) (A) (A) (A) (A) (A) (A) (A) (A) (A) (A)
                 (A) (A) (A) (A) (A) (A) (A) (A) (A) (A) (A) (A)
                 (A) (A) (A) (A) (A) (A) (A) (A) (A) (A) (A) (A)
                 (A) (A) (A) (A) (A) (A) (A) (A) (A) (A) (A) (A)
                 (A) (A) (A) (A) (A) (A) (A) (A) (A) (A) (A) (A)
                 (A) (A) (A) (A) (A) (A) (A) (A) (A) (A) (A) (A)
                 (A) (A) (A) (A) (A) (A) (A) (A) (A) (A) (A) (A)
                 (A) (A) (A) (A) (A) (A) (A) (A) (A) (A) (A) (A)
                 (A) (A) (A) (A) (A) (A) (A) (A) (A) (A) (A) (A)
                 (A) (A) (A) (A) (A) (A) (A) (A) (A) (A) (A) (A)
                 (A) (A) (A) (A) (A) (A) (A) (A) (A) (A) (A) (A)
                 (A) (A) (A) (A) (A) (A) (A) (A) (A) (A) (A) (A)
                 (A) (A) (A) (A) (A) (A) (A) (A) (A) (A) (A) (A)
                 (A) (A) (A) (A) (A) (A) (A) (A) (A) (A) (A) (A)
                 (A) (A) (A) (A) (A) (A) (A) (A) (A) (A) (A) (A)
                 (A) (A) (A) (A) (A) (A) (A) (A) (A) (A) (A) (A)
                 (A) (A) (A) (A) (A) (A) (A) (A) (A) (A) (A) (A)
                 (A) (A) (A) (A) (A) (A) (A) (A) (A) (A) (A) (A)
                 (A) (A) (A) (A) (A) (A) (A) (A) (A) (A) (A) (A)
                 (A) (A) (A) (A) (A) (A) (A) (A) (A) (A) (A) (A)
                 (A) (A) (A)
 The electronic state of the initial guess is 1-A.
 Requested convergence on RMS density matrix=1.00D-08 within 128 cycles.
 Requested convergence on MAX density matrix=1.00D-06.
 Requested convergence on             energy=1.00D-06.
 No special actions if energy rises.
 Error on total polarization charges =  0.01532
 SCF Done:  E(RM062X) =  -1394.55397090     A.U. after   16 cycles
             Convg  =    0.4281D-08             -V/T =  2.0067

 **********************************************************************

            Population analysis using the SCF density.

 **********************************************************************

 Orbital symmetries:
       Occupied  (A) (A) (A) (A) (A) (A) (A) (A) (A) (A) (A) (A)
                 (A) (A) (A) (A) (A) (A) (A) (A) (A) (A) (A) (A)
                 (A) (A) (A) (A) (A) (A) (A) (A) (A) (A) (A) (A)
                 (A) (A) (A) (A) (A) (A) (A) (A) (A) (A) (A) (A)
                 (A) (A) (A) (A) (A) (A) (A) (A) (A) (A) (A) (A)
                 (A) (A) (A) (A) (A) (A) (A) (A) (A) (A) (A) (A)
                 (A) (A) (A) (A) (A) (A)
       Virtual   (A) (A) (A) (A) (A) (A) (A) (A) (A) (A) (A) (A)
                 (A) (A) (A) (A) (A) (A) (A) (A) (A) (A) (A) (A)
                 (A) (A) (A) (A) (A) (A) (A) (A) (A) (A) (A) (A)
                 (A) (A) (A) (A) (A) (A) (A) (A) (A) (A) (A) (A)
                 (A) (A) (A) (A) (A) (A) (A) (A) (A) (A) (A) (A)
                 (A) (A) (A) (A) (A) (A) (A) (A) (A) (A) (A) (A)
                 (A) (A) (A) (A) (A) (A) (A) (A) (A) (A) (A) (A)
                 (A) (A) (A) (A) (A) (A) (A) (A) (A) (A) (A) (A)
                 (A) (A) (A) (A) (A) (A) (A) (A) (A) (A) (A) (A)
                 (A) (A) (A) (A) (A) (A) (A) (A) (A) (A) (A) (A)
                 (A) (A) (A) (A) (A) (A) (A) (A) (A) (A) (A) (A)
                 (A) (A) (A) (A) (A) (A) (A) (A) (A) (A) (A) (A)
                 (A) (A) (A) (A) (A) (A) (A) (A) (A) (A) (A) (A)
                 (A) (A) (A) (A) (A) (A) (A) (A) (A) (A) (A) (A)
                 (A) (A) (A) (A) (A) (A) (A) (A) (A) (A) (A) (A)
                 (A) (A) (A) (A) (A) (A) (A) (A) (A) (A) (A) (A)
                 (A) (A) (A) (A) (A) (A) (A) (A) (A) (A) (A) (A)
                 (A) (A) (A) (A) (A) (A) (A) (A) (A) (A) (A) (A)
                 (A) (A) (A) (A) (A) (A) (A) (A) (A) (A) (A) (A)
                 (A) (A) (A) (A) (A) (A) (A) (A) (A) (A) (A) (A)
                 (A) (A) (A) (A) (A) (A) (A) (A) (A) (A) (A) (A)
                 (A) (A) (A) (A) (A) (A) (A) (A) (A) (A) (A) (A)
                 (A) (A) (A) (A) (A) (A) (A) (A) (A) (A) (A) (A)
                 (A) (A) (A) (A) (A) (A) (A) (A) (A) (A) (A) (A)
                 (A) (A) (A) (A) (A) (A) (A) (A) (A) (A) (A) (A)
                 (A) (A) (A) (A) (A) (A) (A) (A) (A) (A) (A) (A)
                 (A) (A) (A) (A) (A) (A) (A) (A) (A) (A) (A) (A)
                 (A) (A) (A) (A) (A) (A) (A) (A) (A) (A) (A) (A)
                 (A) (A) (A) (A) (A) (A) (A) (A) (A) (A) (A) (A)
                 (A) (A) (A) (A) (A) (A) (A) (A) (A) (A) (A) (A)
                 (A) (A) (A) (A) (A) (A) (A) (A) (A) (A) (A) (A)
                 (A) (A) (A)
 The electronic state is 1-A.
 Alpha  occ. eigenvalues -- -102.68346 -19.70827 -19.70247 -19.68538 -19.65753
 Alpha  occ. eigenvalues --  -19.65026 -14.76810 -10.71002 -10.67731 -10.64966
 Alpha  occ. eigenvalues --  -10.62785 -10.62556 -10.62227 -10.60072 -10.59434
 Alpha  occ. eigenvalues --  -10.58945 -10.58671 -10.57632 -10.57260 -10.55569
 Alpha  occ. eigenvalues --   -9.83026  -7.55429  -7.54766  -7.54756  -1.25114
 Alpha  occ. eigenvalues --   -1.24258  -1.19833  -1.16522  -1.15066  -1.04403
 Alpha  occ. eigenvalues --   -1.00896  -0.95440  -0.92249  -0.88424  -0.87072
 Alpha  occ. eigenvalues --   -0.83770  -0.81188  -0.77456  -0.73549  -0.71533
 Alpha  occ. eigenvalues --   -0.70729  -0.69537  -0.67647  -0.64314  -0.61885
 Alpha  occ. eigenvalues --   -0.60372  -0.59113  -0.58402  -0.57678  -0.55903
 Alpha  occ. eigenvalues --   -0.55472  -0.54725  -0.53565  -0.53172  -0.51918
 Alpha  occ. eigenvalues --   -0.51123  -0.50407  -0.49458  -0.48502  -0.48194
 Alpha  occ. eigenvalues --   -0.47628  -0.47140  -0.46359  -0.45888  -0.45336
 Alpha  occ. eigenvalues --   -0.44901  -0.43880  -0.42381  -0.41105  -0.40121
 Alpha  occ. eigenvalues --   -0.39167  -0.38907  -0.37434  -0.36620  -0.36216
 Alpha  occ. eigenvalues --   -0.34347  -0.31369  -0.28802
 Alpha virt. eigenvalues --   -0.03657   0.00533   0.00639   0.01706   0.02005
 Alpha virt. eigenvalues --    0.02370   0.02912   0.03187   0.03434   0.04271
 Alpha virt. eigenvalues --    0.04677   0.04813   0.05335   0.05691   0.06228
 Alpha virt. eigenvalues --    0.06347   0.06831   0.07190   0.07822   0.08262
 Alpha virt. eigenvalues --    0.08637   0.09065   0.09199   0.09529   0.10310
 Alpha virt. eigenvalues --    0.10403   0.11035   0.11288   0.11627   0.12337
 Alpha virt. eigenvalues --    0.13234   0.13625   0.14130   0.14644   0.14807
 Alpha virt. eigenvalues --    0.15304   0.15416   0.15690   0.16075   0.16510
 Alpha virt. eigenvalues --    0.17090   0.17256   0.17559   0.17767   0.18520
 Alpha virt. eigenvalues --    0.18696   0.18975   0.19477   0.19659   0.20081
 Alpha virt. eigenvalues --    0.20605   0.20830   0.21430   0.21771   0.21991
 Alpha virt. eigenvalues --    0.22074   0.22399   0.23231   0.23628   0.23792
 Alpha virt. eigenvalues --    0.24193   0.24614   0.24641   0.24906   0.25315
 Alpha virt. eigenvalues --    0.25664   0.26074   0.26559   0.26711   0.27066
 Alpha virt. eigenvalues --    0.27618   0.28235   0.28514   0.28711   0.29226
 Alpha virt. eigenvalues --    0.29562   0.30248   0.30540   0.30742   0.30890
 Alpha virt. eigenvalues --    0.31462   0.31972   0.32209   0.32528   0.33204
 Alpha virt. eigenvalues --    0.33655   0.33988   0.34233   0.35169   0.35287
 Alpha virt. eigenvalues --    0.35829   0.36190   0.36833   0.37527   0.37930
 Alpha virt. eigenvalues --    0.39024   0.39228   0.39760   0.39980   0.40765
 Alpha virt. eigenvalues --    0.41885   0.42436   0.42811   0.42977   0.44151
 Alpha virt. eigenvalues --    0.44260   0.44518   0.46384   0.46795   0.47786
 Alpha virt. eigenvalues --    0.48116   0.49064   0.51425   0.51679   0.54169
 Alpha virt. eigenvalues --    0.55304   0.57206   0.59592   0.61409   0.64611
 Alpha virt. eigenvalues --    0.66879   0.67753   0.69134   0.70501   0.70994
 Alpha virt. eigenvalues --    0.71604   0.72211   0.72410   0.73951   0.74374
 Alpha virt. eigenvalues --    0.75171   0.75465   0.76573   0.78060   0.78326
 Alpha virt. eigenvalues --    0.80279   0.80675   0.80812   0.81914   0.82274
 Alpha virt. eigenvalues --    0.82732   0.83995   0.84412   0.85025   0.86581
 Alpha virt. eigenvalues --    0.87106   0.88382   0.89633   0.90096   0.91608
 Alpha virt. eigenvalues --    0.92348   0.93067   0.94031   0.94967   0.96874
 Alpha virt. eigenvalues --    0.97661   0.99089   0.99204   1.00668   1.01550
 Alpha virt. eigenvalues --    1.03606   1.03997   1.05180   1.06228   1.07468
 Alpha virt. eigenvalues --    1.08650   1.09392   1.10909   1.11598   1.12805
 Alpha virt. eigenvalues --    1.13014   1.13465   1.15643   1.16509   1.17137
 Alpha virt. eigenvalues --    1.18457   1.19380   1.19676   1.21132   1.22346
 Alpha virt. eigenvalues --    1.23187   1.23629   1.24097   1.24989   1.26376
 Alpha virt. eigenvalues --    1.26697   1.26932   1.27500   1.29191   1.29540
 Alpha virt. eigenvalues --    1.31048   1.31656   1.33116   1.34518   1.35480
 Alpha virt. eigenvalues --    1.35979   1.37090   1.37499   1.38503   1.39537
 Alpha virt. eigenvalues --    1.40330   1.40847   1.41769   1.43117   1.43532
 Alpha virt. eigenvalues --    1.43911   1.44174   1.44259   1.44626   1.46156
 Alpha virt. eigenvalues --    1.47786   1.48912   1.50558   1.52182   1.52415
 Alpha virt. eigenvalues --    1.54586   1.55619   1.57650   1.57983   1.60142
 Alpha virt. eigenvalues --    1.61655   1.63233   1.63667   1.63788   1.65692
 Alpha virt. eigenvalues --    1.66848   1.68150   1.69340   1.73601   1.74718
 Alpha virt. eigenvalues --    1.75674   1.77052   1.78842   1.79084   1.81546
 Alpha virt. eigenvalues --    1.82756   1.84135   1.84501   1.85385   1.86962
 Alpha virt. eigenvalues --    1.87051   1.88246   1.89386   1.90561   1.91811
 Alpha virt. eigenvalues --    1.93001   1.95074   1.96139   1.97353   1.97730
 Alpha virt. eigenvalues --    1.98786   2.00449   2.02657   2.03727   2.04072
 Alpha virt. eigenvalues --    2.05150   2.05875   2.07964   2.08486   2.09853
 Alpha virt. eigenvalues --    2.10667   2.10991   2.12786   2.15113   2.16282
 Alpha virt. eigenvalues --    2.17732   2.18023   2.18990   2.21590   2.21903
 Alpha virt. eigenvalues --    2.23753   2.24679   2.25733   2.28106   2.28800
 Alpha virt. eigenvalues --    2.29773   2.33165   2.34144   2.36833   2.37885
 Alpha virt. eigenvalues --    2.38951   2.40282   2.41522   2.41728   2.42833
 Alpha virt. eigenvalues --    2.43665   2.45096   2.47069   2.47283   2.49826
 Alpha virt. eigenvalues --    2.51025   2.52270   2.53444   2.54123   2.55293
 Alpha virt. eigenvalues --    2.56686   2.57386   2.58505   2.59184   2.60397
 Alpha virt. eigenvalues --    2.61819   2.62092   2.63965   2.64261   2.67392
 Alpha virt. eigenvalues --    2.67629   2.69663   2.70053   2.70992   2.71800
 Alpha virt. eigenvalues --    2.72649   2.73800   2.74374   2.75096   2.75165
 Alpha virt. eigenvalues --    2.76153   2.78336   2.79555   2.81253   2.83652
 Alpha virt. eigenvalues --    2.83730   2.85127   2.89252   2.90018   2.92382
 Alpha virt. eigenvalues --    2.93757   2.96992   2.97722   3.01549   3.02765
 Alpha virt. eigenvalues --    3.04139   3.06264   3.06628   3.09322   3.13219
 Alpha virt. eigenvalues --    3.13929   3.15358   3.19043   3.20949   3.26674
 Alpha virt. eigenvalues --    3.27256   3.32581   3.37341   3.38022   3.40533
 Alpha virt. eigenvalues --    3.43830   3.45551   3.47279   3.48714   3.52581
 Alpha virt. eigenvalues --    3.52711   3.58758   3.64414   3.66361   3.76472
 Alpha virt. eigenvalues --    4.27436   4.30046   4.30418   4.31846   4.35418
 Alpha virt. eigenvalues --    4.37081   4.37418   4.40285   4.46727   4.50539
 Alpha virt. eigenvalues --    4.53199   4.54702   4.59612   4.61265   4.67228
 Alpha virt. eigenvalues --    4.74296   4.77145   4.86423   4.89280   4.96878
          Condensed to atoms (all electrons):
              1          2          3          4          5          6
     1  O    8.412702   0.369824   0.120924  -0.031902   0.002264   0.009727
     2  C    0.369824  22.297820  -4.919250   1.708018  -0.437435  -0.095965
     3  C    0.120924  -4.919250  13.635782  -0.469822  -0.384133  -0.202292
     4  C   -0.031902   1.708018  -0.469822   8.855796   0.119513  -0.093953
     5  N    0.002264  -0.437435  -0.384133   0.119513   7.279246  -0.104648
     6  C    0.009727  -0.095965  -0.202292  -0.093953  -0.104648  11.190402
     7  C   -0.001360  -0.022686  -0.033344   0.102223  -0.040516  -2.111520
     8  O    0.000002  -0.005903   0.012979   0.048057  -0.028513  -0.083418
     9  C   -0.005628  -0.148851  -0.080005  -0.345262   0.158601   0.733932
    10  C   -0.002135  -0.121575  -0.022672  -0.433485   0.088919   0.046740
    11  O    0.000009  -0.000597   0.000635   0.002482  -0.002263  -0.017227
    12  O    0.000000  -0.000936   0.000412  -0.003971   0.000753  -0.012641
    13  C   -0.026035   0.317504   0.095208  -0.679961   0.122457  -2.913468
    14  C    0.002754   0.142127   0.003133  -0.156215  -0.059080   0.113813
    15  O    0.021736  -0.272191  -0.103204   0.249921  -0.103050  -0.248116
    16  C    0.145268  -8.966004   1.051421  -3.253648   0.539955  -0.381819
    17  C   -0.017488   0.515353  -1.397028   0.678314   0.133893   0.168227
    18  Cl  -0.000352   0.004350  -0.017069   0.007900  -0.000339  -0.002558
    19  C    0.043385   0.798901   0.035924   0.114994  -0.008730   0.042751
    20  C   -0.672282  -4.815198  -1.214640  -0.838766   0.022425  -0.333358
    21  H    0.202466   0.107041  -0.196360   0.028548   0.002005  -0.009294
    22  H    0.000011   0.000975   0.006563   0.032265  -0.041579   0.341757
    23  H    0.000001  -0.002297   0.000983  -0.012613  -0.000937   0.048408
    24  H    0.000000  -0.003389  -0.007715  -0.003674   0.027985  -0.050884
    25  H   -0.000131   0.014832  -0.011914  -0.030490  -0.007699  -0.011262
    26  H    0.000034  -0.011060   0.002222   0.004067  -0.003583   0.057046
    27  H    0.000000  -0.000004  -0.000023   0.000227   0.000035   0.000796
    28  H    0.000018   0.004864  -0.012681   0.026334   0.008128  -0.010368
    29  H    0.000018   0.001970   0.000436  -0.002865  -0.000147  -0.071178
    30  H   -0.000072  -0.000420  -0.002899   0.004299  -0.000508   0.033496
    31  H   -0.000001   0.001202  -0.002038   0.001152  -0.002704   0.042318
    32  H   -0.000408   0.072195   0.064579   0.053718   0.003530   0.001104
    33  H   -0.000406  -0.066663   0.005732  -0.007935   0.000065   0.000015
    34  H   -0.003388   0.031271   0.002058   0.000676   0.000042  -0.000081
              7          8          9         10         11         12
     1  O   -0.001360   0.000002  -0.005628  -0.002135   0.000009   0.000000
     2  C   -0.022686  -0.005903  -0.148851  -0.121575  -0.000597  -0.000936
     3  C   -0.033344   0.012979  -0.080005  -0.022672   0.000635   0.000412
     4  C    0.102223   0.048057  -0.345262  -0.433485   0.002482  -0.003971
     5  N   -0.040516  -0.028513   0.158601   0.088919  -0.002263   0.000753
     6  C   -2.111520  -0.083418   0.733932   0.046740  -0.017227  -0.012641
     7  C    8.478711   0.316046  -0.898479  -0.241254   0.033167  -0.020263
     8  O    0.316046   8.241321  -0.211709   0.018587   0.002461  -0.000667
     9  C   -0.898479  -0.211709   7.826159  -1.126999  -0.227589  -0.096308
    10  C   -0.241254   0.018587  -1.126999   6.661908   0.253040   0.539553
    11  O    0.033167   0.002461  -0.227589   0.253040   8.333404  -0.144839
    12  O   -0.020263  -0.000667  -0.096308   0.539553  -0.144839   8.220677
    13  C   -0.012445   0.010761   0.006213  -0.033188  -0.000739   0.002368
    14  C   -0.322532   0.000482  -0.046231  -0.023638  -0.001285  -0.002551
    15  O    0.235025  -0.006467  -0.015977   0.006466  -0.000972   0.000008
    16  C    0.269193   0.000238   0.043204   0.110266   0.000914   0.001698
    17  C    0.014348  -0.006427   0.013373  -0.005072  -0.000028  -0.000173
    18  Cl   0.000684   0.000021   0.000083   0.000224   0.000000  -0.000001
    19  C    0.006949  -0.000208  -0.006500  -0.002694   0.000019   0.000033
    20  C    0.022522  -0.000326   0.002485   0.003902  -0.000219  -0.000040
    21  H    0.002220  -0.000002  -0.001454  -0.000121   0.000001   0.000000
    22  H   -0.028102  -0.004826   0.016853  -0.001864  -0.000128   0.000010
    23  H    0.391206  -0.043291  -0.140556   0.040345   0.008844   0.001941
    24  H    0.034523   0.263992  -0.042953   0.011553   0.000181   0.000463
    25  H   -0.028843   0.008415   0.351122   0.020391  -0.000528  -0.000398
    26  H   -0.037499  -0.001517   0.347065  -0.022348   0.009658  -0.000041
    27  H   -0.003668   0.000020   0.052017  -0.029351   0.240760   0.002852
    28  H    0.046366  -0.000646  -0.006852   0.001037  -0.000005  -0.000001
    29  H    0.089344  -0.000646  -0.024143   0.004129  -0.001109  -0.000132
    30  H   -0.022434   0.000057   0.002842  -0.001373   0.000094   0.000001
    31  H   -0.030719   0.000009   0.002147  -0.000769   0.000668   0.000010
    32  H   -0.001043  -0.000103   0.002795   0.000501   0.000000   0.000000
    33  H   -0.000008   0.000000  -0.000013  -0.000001   0.000000   0.000000
    34  H    0.000005   0.000000   0.000028   0.000002   0.000000   0.000000
             13         14         15         16         17         18
     1  O   -0.026035   0.002754   0.021736   0.145268  -0.017488  -0.000352
     2  C    0.317504   0.142127  -0.272191  -8.966004   0.515353   0.004350
     3  C    0.095208   0.003133  -0.103204   1.051421  -1.397028  -0.017069
     4  C   -0.679961  -0.156215   0.249921  -3.253648   0.678314   0.007900
     5  N    0.122457  -0.059080  -0.103050   0.539955   0.133893  -0.000339
     6  C   -2.913468   0.113813  -0.248116  -0.381819   0.168227  -0.002558
     7  C   -0.012445  -0.322532   0.235025   0.269193   0.014348   0.000684
     8  O    0.010761   0.000482  -0.006467   0.000238  -0.006427   0.000021
     9  C    0.006213  -0.046231  -0.015977   0.043204   0.013373   0.000083
    10  C   -0.033188  -0.023638   0.006466   0.110266  -0.005072   0.000224
    11  O   -0.000739  -0.001285  -0.000972   0.000914  -0.000028   0.000000
    12  O    0.002368  -0.002551   0.000008   0.001698  -0.000173  -0.000001
    13  C    8.996281   0.009283  -0.062696  -0.382507  -0.068665   0.001018
    14  C    0.009283   5.826871  -0.141670  -0.093980  -0.014629  -0.000031
    15  O   -0.062696  -0.141670   8.606735   0.151808   0.049404  -0.000154
    16  C   -0.382507  -0.093980   0.151808  24.564452  -4.936343  -0.114120
    17  C   -0.068665  -0.014629   0.049404  -4.936343   9.836753  -0.106554
    18  Cl   0.001018  -0.000031  -0.000154  -0.114120  -0.106554  17.018131
    19  C   -0.037541  -0.001205  -0.006516  -2.758310   1.121364  -0.079953
    20  C    0.302362   0.035453   0.020311   0.375647  -0.117372   0.067524
    21  H    0.017166  -0.007158   0.030193  -0.049926   0.003681  -0.000001
    22  H   -0.017902  -0.016551   0.013672  -0.002679  -0.002517   0.000005
    23  H   -0.036285   0.021921  -0.005538   0.001226  -0.000166   0.000000
    24  H    0.022137  -0.000762  -0.000833   0.006504   0.000480   0.000036
    25  H    0.011866  -0.009781   0.011682  -0.012038  -0.001158   0.000009
    26  H   -0.028388   0.002953  -0.003123   0.020398  -0.000413  -0.000024
    27  H   -0.000597   0.000502   0.000001  -0.000001   0.000002   0.000000
    28  H    0.328846  -0.057423  -0.045124   0.004991   0.000340   0.000003
    29  H   -0.006186   0.360295   0.007199   0.000492  -0.000220   0.000000
    30  H   -0.081353   0.440649  -0.008333   0.000411   0.000159   0.000000
    31  H   -0.104754   0.449419   0.006060  -0.000853  -0.000006   0.000000
    32  H    0.006294   0.000085   0.000258   0.050001   0.039781  -0.001784
    33  H   -0.000080  -0.000002   0.000000   0.162470   0.078260  -0.009707
    34  H    0.000272  -0.000012   0.000196  -0.006875   0.000805   0.000970
             19         20         21         22         23         24
     1  O    0.043385  -0.672282   0.202466   0.000011   0.000001   0.000000
     2  C    0.798901  -4.815198   0.107041   0.000975  -0.002297  -0.003389
     3  C    0.035924  -1.214640  -0.196360   0.006563   0.000983  -0.007715
     4  C    0.114994  -0.838766   0.028548   0.032265  -0.012613  -0.003674
     5  N   -0.008730   0.022425   0.002005  -0.041579  -0.000937   0.027985
     6  C    0.042751  -0.333358  -0.009294   0.341757   0.048408  -0.050884
     7  C    0.006949   0.022522   0.002220  -0.028102   0.391206   0.034523
     8  O   -0.000208  -0.000326  -0.000002  -0.004826  -0.043291   0.263992
     9  C   -0.006500   0.002485  -0.001454   0.016853  -0.140556  -0.042953
    10  C   -0.002694   0.003902  -0.000121  -0.001864   0.040345   0.011553
    11  O    0.000019  -0.000219   0.000001  -0.000128   0.008844   0.000181
    12  O    0.000033  -0.000040   0.000000   0.000010   0.001941   0.000463
    13  C   -0.037541   0.302362   0.017166  -0.017902  -0.036285   0.022137
    14  C   -0.001205   0.035453  -0.007158  -0.016551   0.021921  -0.000762
    15  O   -0.006516   0.020311   0.030193   0.013672  -0.005538  -0.000833
    16  C   -2.758310   0.375647  -0.049926  -0.002679   0.001226   0.006504
    17  C    1.121364  -0.117372   0.003681  -0.002517  -0.000166   0.000480
    18  Cl  -0.079953   0.067524  -0.000001   0.000005   0.000000   0.000036
    19  C    7.168833  -0.278568  -0.002908  -0.000232  -0.000006  -0.000006
    20  C   -0.278568  12.625531   0.121068   0.001089  -0.000135  -0.000147
    21  H   -0.002908   0.121068   0.293493   0.000001   0.000000   0.000000
    22  H   -0.000232   0.001089   0.000001   0.511202  -0.005636  -0.003140
    23  H   -0.000006  -0.000135   0.000000  -0.005636   0.531013   0.005682
    24  H   -0.000006  -0.000147   0.000000  -0.003140   0.005682   0.329676
    25  H   -0.000339   0.006766   0.000046  -0.000006   0.002049  -0.000006
    26  H    0.000611  -0.004167  -0.000003  -0.000205   0.002757   0.001060
    27  H    0.000000  -0.000002   0.000000   0.000000  -0.000060   0.000000
    28  H    0.000108   0.001340   0.000070  -0.008031  -0.000041  -0.000008
    29  H    0.000043   0.000746   0.000036  -0.000018  -0.001533   0.000000
    30  H   -0.000014  -0.000533  -0.000051  -0.000099   0.000099   0.000000
    31  H    0.000000   0.000021   0.000000   0.000245  -0.000109  -0.000005
    32  H    0.044831  -0.012517  -0.000005   0.000001   0.000000   0.000041
    33  H    0.176651  -0.008556   0.000002   0.000000   0.000000   0.000000
    34  H    0.000890   0.302062   0.000037   0.000000   0.000000   0.000000
             25         26         27         28         29         30
     1  O   -0.000131   0.000034   0.000000   0.000018   0.000018  -0.000072
     2  C    0.014832  -0.011060  -0.000004   0.004864   0.001970  -0.000420
     3  C   -0.011914   0.002222  -0.000023  -0.012681   0.000436  -0.002899
     4  C   -0.030490   0.004067   0.000227   0.026334  -0.002865   0.004299
     5  N   -0.007699  -0.003583   0.000035   0.008128  -0.000147  -0.000508
     6  C   -0.011262   0.057046   0.000796  -0.010368  -0.071178   0.033496
     7  C   -0.028843  -0.037499  -0.003668   0.046366   0.089344  -0.022434
     8  O    0.008415  -0.001517   0.000020  -0.000646  -0.000646   0.000057
     9  C    0.351122   0.347065   0.052017  -0.006852  -0.024143   0.002842
    10  C    0.020391  -0.022348  -0.029351   0.001037   0.004129  -0.001373
    11  O   -0.000528   0.009658   0.240760  -0.000005  -0.001109   0.000094
    12  O   -0.000398  -0.000041   0.002852  -0.000001  -0.000132   0.000001
    13  C    0.011866  -0.028388  -0.000597   0.328846  -0.006186  -0.081353
    14  C   -0.009781   0.002953   0.000502  -0.057423   0.360295   0.440649
    15  O    0.011682  -0.003123   0.000001  -0.045124   0.007199  -0.008333
    16  C   -0.012038   0.020398  -0.000001   0.004991   0.000492   0.000411
    17  C   -0.001158  -0.000413   0.000002   0.000340  -0.000220   0.000159
    18  Cl   0.000009  -0.000024   0.000000   0.000003   0.000000   0.000000
    19  C   -0.000339   0.000611   0.000000   0.000108   0.000043  -0.000014
    20  C    0.006766  -0.004167  -0.000002   0.001340   0.000746  -0.000533
    21  H    0.000046  -0.000003   0.000000   0.000070   0.000036  -0.000051
    22  H   -0.000006  -0.000205   0.000000  -0.008031  -0.000018  -0.000099
    23  H    0.002049   0.002757  -0.000060  -0.000041  -0.001533   0.000099
    24  H   -0.000006   0.001060   0.000000  -0.000008   0.000000   0.000000
    25  H    0.502413  -0.025860  -0.000139  -0.000020  -0.001052   0.000100
    26  H   -0.025860   0.478208  -0.000172   0.000005   0.000107   0.000000
    27  H   -0.000139  -0.000172   0.294186   0.000000  -0.000027  -0.000001
    28  H   -0.000020   0.000005   0.000000   0.530660   0.003808  -0.004392
    29  H   -0.001052   0.000107  -0.000027   0.003808   0.514738  -0.026244
    30  H    0.000100   0.000000  -0.000001  -0.004392  -0.026244   0.505137
    31  H    0.000005  -0.000005   0.000008  -0.001552  -0.026474  -0.022447
    32  H    0.000001  -0.000014   0.000000   0.000000   0.000000   0.000000
    33  H    0.000000   0.000000   0.000000   0.000000   0.000000   0.000000
    34  H    0.000000   0.000000   0.000000   0.000000   0.000000   0.000000
             31         32         33         34
     1  O   -0.000001  -0.000408  -0.000406  -0.003388
     2  C    0.001202   0.072195  -0.066663   0.031271
     3  C   -0.002038   0.064579   0.005732   0.002058
     4  C    0.001152   0.053718  -0.007935   0.000676
     5  N   -0.002704   0.003530   0.000065   0.000042
     6  C    0.042318   0.001104   0.000015  -0.000081
     7  C   -0.030719  -0.001043  -0.000008   0.000005
     8  O    0.000009  -0.000103   0.000000   0.000000
     9  C    0.002147   0.002795  -0.000013   0.000028
    10  C   -0.000769   0.000501  -0.000001   0.000002
    11  O    0.000668   0.000000   0.000000   0.000000
    12  O    0.000010   0.000000   0.000000   0.000000
    13  C   -0.104754   0.006294  -0.000080   0.000272
    14  C    0.449419   0.000085  -0.000002  -0.000012
    15  O    0.006060   0.000258   0.000000   0.000196
    16  C   -0.000853   0.050001   0.162470  -0.006875
    17  C   -0.000006   0.039781   0.078260   0.000805
    18  Cl   0.000000  -0.001784  -0.009707   0.000970
    19  C    0.000000   0.044831   0.176651   0.000890
    20  C    0.000021  -0.012517  -0.008556   0.302062
    21  H    0.000000  -0.000005   0.000002   0.000037
    22  H    0.000245   0.000001   0.000000   0.000000
    23  H   -0.000109   0.000000   0.000000   0.000000
    24  H   -0.000005   0.000041   0.000000   0.000000
    25  H    0.000005   0.000001   0.000000   0.000000
    26  H   -0.000005  -0.000014   0.000000   0.000000
    27  H    0.000008   0.000000   0.000000   0.000000
    28  H   -0.001552   0.000000   0.000000   0.000000
    29  H   -0.026474   0.000000   0.000000   0.000000
    30  H   -0.022447   0.000000   0.000000   0.000000
    31  H    0.499271   0.000000   0.000000   0.000000
    32  H    0.000000   0.463732  -0.000129   0.000008
    33  H    0.000000  -0.000129   0.466735  -0.003677
    34  H    0.000000   0.000008  -0.003677   0.470641
 Mulliken atomic charges:
              1
     1  O   -0.569557
     2  C   -0.497821
     3  C    0.038095
     4  C    0.326056
     5  N   -0.283954
     6  C   -0.076482
     7  C   -0.185820
     8  O   -0.528778
     9  C   -0.133407
    10  C    0.260976
    11  O   -0.488809
    12  O   -0.487819
    13  C    0.242754
    14  C   -0.455002
    15  O   -0.386709
    16  C   -0.541448
    17  C    0.019722
    18  Cl   0.231689
    19  C   -0.372556
    20  C    0.385572
    21  H    0.459213
    22  H    0.208868
    23  H    0.192730
    24  H    0.409207
    25  H    0.211966
    26  H    0.212231
    27  H    0.442638
    28  H    0.190226
    29  H    0.178615
    30  H    0.183831
    31  H    0.189903
    32  H    0.212550
    33  H    0.207246
    34  H    0.204072
 Sum of Mulliken atomic charges =   0.00000
 Mulliken charges with hydrogens summed into heavy atoms:
              1
     1  O   -0.110344
     2  C   -0.497821
     3  C    0.038095
     4  C    0.326056
     5  N   -0.283954
     6  C    0.132387
     7  C    0.006910
     8  O   -0.119570
     9  C    0.290790
    10  C    0.260976
    11  O   -0.046171
    12  O   -0.487819
    13  C    0.432980
    14  C    0.097347
    15  O   -0.386709
    16  C   -0.328898
    17  C    0.019722
    18  Cl   0.231689
    19  C   -0.165310
    20  C    0.589645
 Sum of Mulliken charges with hydrogens summed into heavy atoms =   0.00000
 Electronic spatial extent (au):  <R**2>=           7532.0843
 Charge=              0.0000 electrons
 Dipole moment (field-independent basis, Debye):
    X=             -1.6011    Y=              6.2741    Z=             -0.7243  Tot=              6.5155
 Quadrupole moment (field-independent basis, Debye-Ang):
   XX=           -112.5121   YY=           -137.3005   ZZ=           -126.2116
   XY=            -15.1554   XZ=              4.5436   YZ=             -0.9282
 Traceless Quadrupole moment (field-independent basis, Debye-Ang):
   XX=             12.8293   YY=            -11.9591   ZZ=             -0.8702
   XY=            -15.1554   XZ=              4.5436   YZ=             -0.9282
 Octapole moment (field-independent basis, Debye-Ang**2):
  XXX=            -98.3952  YYY=             37.0361  ZZZ=             -5.0645  XYY=             12.0906
  XXY=             68.2100  XXZ=             54.3333  XZZ=             -8.3057  YZZ=             22.0603
  YYZ=            -26.7775  XYZ=              2.1106
 Hexadecapole moment (field-independent basis, Debye-Ang**3):
 XXXX=          -6015.5229 YYYY=          -2040.4504 ZZZZ=           -971.1591 XXXY=             45.1017
 XXXZ=            -61.4697 YYYX=           -197.2939 YYYZ=             32.1649 ZZZX=            -23.2302
 ZZZY=              7.1723 XXYY=          -1658.0872 XXZZ=          -1252.8561 YYZZ=           -537.8890
 XXYZ=             29.1966 YYXZ=             43.1760 ZZXY=            -66.2353
 N-N= 1.686989712886D+03 E-N=-6.645943157939D+03  KE= 1.385322167920D+03
 D1PCM: PCM CHGder 1st derivatives, ID1Alg=3 FixD1E=F DoIter=F DoCFld=F I1PDM=0.
 Calling FoFJK, ICntrl=      2127 FMM=F ISym2X=0 I1Cent= 0 IOpClX= 0 NMat=1 NMatS=1 NMatT=0.
 ***** Axes restored to original set *****
 -------------------------------------------------------------------
 Center     Atomic                   Forces (Hartrees/Bohr)
 Number     Number              X              Y              Z
 -------------------------------------------------------------------
      1        8          -0.021704204    0.012416309    0.024364857
      2        6           0.005209155   -0.001440219   -0.005841912
      3        6          -0.004779440   -0.009762308    0.004656933
      4        6           0.004656390    0.007417628   -0.005038830
      5        7          -0.005215317    0.018264078    0.008429061
      6        6           0.012347978   -0.015402212   -0.008030625
      7        6          -0.010989124    0.007243025    0.004628719
      8        8           0.026392744   -0.004215547   -0.009653469
      9        6           0.004060401   -0.005719100   -0.004550851
     10        6           0.000246884    0.006968400    0.010628993
     11        8          -0.040103754    0.020190926    0.003106339
     12        8          -0.009409738   -0.016650683   -0.022839837
     13        6           0.018481950   -0.001162706   -0.015914783
     14        6          -0.008323915    0.002757183    0.006614286
     15        8          -0.024598050   -0.018953883    0.033169487
     16        6          -0.010126904   -0.007119669    0.009982957
     17        6           0.010025029   -0.024179273   -0.012899067
     18       17          -0.001360868    0.007795072    0.002133229
     19        6           0.010926719   -0.008671569   -0.012150471
     20        6           0.005260110    0.017819078   -0.003654161
     21        1           0.015737744    0.000451075   -0.016880284
     22        1           0.005787241    0.004945625    0.000046224
     23        1           0.002148851   -0.000494610   -0.001077448
     24        1          -0.015969274    0.012924152    0.008904809
     25        1          -0.001402866   -0.007791009   -0.001436433
     26        1           0.002843638    0.004195943   -0.001937424
     27        1           0.034729031   -0.004258634    0.007897718
     28        1          -0.002871278    0.000025030   -0.002636726
     29        1           0.001725234    0.002477389    0.003320757
     30        1          -0.002809154   -0.000762361   -0.000712304
     31        1          -0.000935898    0.003542463   -0.002331406
     32        1           0.003577680    0.000867691   -0.003576173
     33        1          -0.002960973    0.000275476    0.003079297
     34        1          -0.000596023   -0.003992760    0.000198540
 -------------------------------------------------------------------
 Cartesian Forces:  Max     0.040103754 RMS     0.011637411

 GradGradGradGradGradGradGradGradGradGradGradGradGradGradGradGradGradGrad
 Berny optimization.
 Internal  Forces:  Max     0.035861583 RMS     0.007232136
 Search for a local minimum.
 Step number   1 out of a maximum of  192
 All quantities printed in internal units (Hartrees-Bohrs-Radians)
 Mixed Optimization -- RFO/linear search
 Second derivative matrix not updated -- first step.
 ITU=  0
     Eigenvalues ---    0.00230   0.00230   0.00265   0.00381   0.00691
     Eigenvalues ---    0.00853   0.00908   0.01489   0.01553   0.01684
     Eigenvalues ---    0.01842   0.01916   0.01943   0.01963   0.01980
     Eigenvalues ---    0.01999   0.02001   0.02005   0.02119   0.02227
     Eigenvalues ---    0.02375   0.03739   0.03749   0.03760   0.03986
     Eigenvalues ---    0.04189   0.04936   0.05071   0.05126   0.05213
     Eigenvalues ---    0.05517   0.05700   0.07958   0.07978   0.08485
     Eigenvalues ---    0.09645   0.12983   0.13754   0.16000   0.16000
     Eigenvalues ---    0.16000   0.16000   0.16000   0.16000   0.16000
     Eigenvalues ---    0.16000   0.16494   0.16874   0.17034   0.19249
     Eigenvalues ---    0.19849   0.21896   0.22438   0.23513   0.23763
     Eigenvalues ---    0.24601   0.24983   0.25000   0.25000   0.25000
     Eigenvalues ---    0.25000   0.27343   0.27484   0.27490   0.28712
     Eigenvalues ---    0.29510   0.33048   0.33279   0.34514   0.34585
     Eigenvalues ---    0.34653   0.34737   0.34786   0.34806   0.35064
     Eigenvalues ---    0.35067   0.35934   0.35954   0.35977   0.37486
     Eigenvalues ---    0.38683   0.40296   0.42146   0.42950   0.43174
     Eigenvalues ---    0.43863   0.44308   0.44555   0.47918   0.51338
     Eigenvalues ---    0.53039   0.56983   0.57326   0.58779   0.71441
     Eigenvalues ---    0.92421
 RFO step:  Lambda=-2.69577700D-02 EMin= 2.30000000D-03
 Linear search not attempted -- first point.
 Iteration  1 RMS(Cart)=  0.08602335 RMS(Int)=  0.00236388
 Iteration  2 RMS(Cart)=  0.00381322 RMS(Int)=  0.00033701
 Iteration  3 RMS(Cart)=  0.00001278 RMS(Int)=  0.00033695
 Iteration  4 RMS(Cart)=  0.00000000 RMS(Int)=  0.00033695
 Variable       Old X    -DE/DX   Delta X   Delta X   Delta X     New X
                                 (Linear)    (Quad)   (Total)
    R1        2.58464  -0.01413   0.00000  -0.02654  -0.02656   2.55808
    R2        1.79517   0.02002   0.00000   0.03423   0.03427   1.82944
    R3        2.68963  -0.00919   0.00000  -0.02262  -0.02270   2.66693
    R4        2.66316  -0.01305   0.00000  -0.02790  -0.02791   2.63525
    R5        2.81431  -0.01310   0.00000  -0.03791  -0.03795   2.77636
    R6        2.67428  -0.01609   0.00000  -0.03528  -0.03529   2.63899
    R7        2.39944   0.01126   0.00000   0.01421   0.01431   2.41375
    R8        2.58819  -0.00517   0.00000  -0.01018  -0.01006   2.57813
    R9        2.72389   0.01219   0.00000   0.03000   0.02996   2.75385
   R10        2.93267  -0.00685   0.00000  -0.02268  -0.02268   2.90999
   R11        2.90957   0.00708   0.00000   0.02332   0.02318   2.93275
   R12        2.06471   0.00156   0.00000   0.00419   0.00419   2.06890
[...]
 99946,-0.00054194,-0.00001047,0.00000526,-0.00000181,0.00000269,-0.000
 00903,0.00000630,-0.00000156,0.00000064,-0.00000015,-0.00000685,0.0000
 0421,-0.00000004,0.00000397,-0.00000187,-0.00000189,-0.00002839,-0.000
 02052,-0.00000497,-0.00012933,0.00017476,-0.00005160,-0.00054805,-0.00
 072811,0.00037345,0.00012281,-0.00002504,0.00001584,0.00007248,-0.0008
 5668,-0.00186709,0.00018278,0.00023484,0.00003804,-0.00015105,0.000077
 59,0.00001918,0.00350295,-0.00335592,-0.00121326,-0.00212450,0.0513785
 3,-0.00003512,-0.00000472,0.00002379,-0.00000243,0.00000305,-0.0000214
 4,-0.00003294,0.00010209,0.00001805,-0.00006898,-0.00072777,-0.0000058
 7,0.00014713,0.00026674,0.00003813,-0.00054850,-0.00016697,-0.00012726
 ,-0.00043644,0.00049451,0.00046616,0.00023109,-0.00030865,-0.00021238,
 -0.00019223,-0.00109069,-0.00070251,0.00003815,-0.00011804,0.00010531,
 -0.00000330,-0.00000883,-0.00005182,-0.00008950,-0.00002517,-0.0001315
 1,0.00462845,0.00048130,0.00242742,-0.13822399,0.00122200,-0.20469660,
 -0.00096197,0.00110175,0.00164607,-0.00001796,-0.00002036,0.00000305,-
 0.00000826,-0.00001599,0.00001508,-0.00000287,0.00001389,0.00000832,-0
 .00000210,0.00001672,0.00000279,0.00000980,-0.00000411,0.00000623,0.00
 005317,0.00004502,-0.00002009,0.00004903,0.00001156,0.00000665,0.00039
 355,0.00026527,-0.00039059,-0.00009576,-0.00003381,0.00002764,-0.00008
 143,-0.00196722,-0.00123380,0.00001017,-0.00003815,-0.00008978,0.00002
 207,-0.00000994,-0.00003321,0.00097904,-0.00071547,0.00109992,0.151290
 17,0.00189373,0.21965155,0.00000777,-0.00006206,-0.00004069,-0.0000259
 9,0.00010498,0.00005218,-0.00008304,-0.00011339,0.00000257,0.00048920,
 0.00067769,-0.00044976,-0.00033400,0.00165012,0.00100640,-0.00365957,0
 .00107832,0.00088571,-0.00102471,0.00036974,0.00017921,0.00039026,-0.0
 0028518,-0.00002569,0.00016420,0.00002325,-0.00009446,0.00019151,0.000
 08800,0.00024808,-0.00012294,-0.00003320,-0.00005553,-0.00010696,-0.00
 006784,-0.00014254,0.01164142,0.02416746,0.00052637,-0.11372051,-0.120
 50451,-0.00317566,0.00152742,-0.00151292,-0.00119557,0.00001478,0.0000
 0365,-0.00000769,-0.00002650,-0.00004739,0.00000258,-0.00000042,0.0000
 1137,0.00000511,-0.00000949,0.00002660,0.00001382,0.00001473,-0.000018
 45,-0.00000319,-0.00004002,-0.00000540,0.00005189,0.00011555,0.0002581
 5,-0.00006866,0.00042372,-0.00015869,-0.00033583,-0.00009600,-0.000064
 95,-0.00000983,-0.00010898,-0.00008679,0.00017970,-0.00005714,-0.00007
 483,-0.00003864,0.00004947,-0.00003103,-0.00001217,0.00115775,-0.00071
 552,-0.00017101,-0.00953838,-0.01729847,0.00169194,0.12069833,0.000008
 83,0.00014100,0.00004541,0.00001831,-0.00020144,-0.00008011,0.00009444
 ,0.00011708,-0.00004250,-0.00044085,-0.00128967,0.00027575,0.00053249,
 -0.00103962,-0.00105747,0.00398116,0.00079896,0.00008927,0.00072008,0.
 00044727,0.00018338,-0.00026730,-0.00025808,-0.00008979,-0.00010999,-0
 .00000883,-0.00002525,0.00022031,0.00002960,0.00002204,-0.00010280,0.0
 0002773,-0.00000289,-0.00010849,-0.00005087,-0.00006132,-0.01262579,-0
 .02387188,-0.00015394,-0.11801563,-0.25817565,-0.00326665,-0.00066369,
 0.00218239,0.00060580,-0.00001146,0.00002262,0.00000179,0.00004983,0.0
 0007898,-0.00001375,0.00000319,-0.00002765,-0.00001374,0.00001491,-0.0
 0005489,-0.00002850,-0.00001888,0.00003454,0.00001488,0.00007611,-0.00
 007693,-0.00008371,-0.00012523,-0.00047384,0.00003182,0.00007959,0.000
 04592,0.00002862,0.00000684,0.00009882,0.00005493,0.00001243,-0.000042
 09,0.00002965,-0.00000033,0.00000217,0.00000177,0.00001762,0.00000122,
 0.00000114,-0.00005146,0.00101614,0.00016267,0.00101654,0.00163820,-0.
 00010125,0.12595084,0.28001053,-0.00005655,0.00002447,0.00003613,0.000
 01345,-0.00005708,-0.00003395,-0.00001319,0.00008051,0.00002064,-0.000
 10284,-0.00050708,-0.00005961,0.00034352,0.00009440,-0.00011947,0.0001
 8941,-0.00029065,0.00107953,0.00006081,0.00025824,-0.00012034,0.000078
 01,-0.00012591,0.00002509,0.00002826,0.00002866,-0.00014259,0.00027447
 ,0.00006151,0.00019218,-0.00014170,-0.00001668,-0.00003316,-0.00014087
 ,-0.00006341,-0.00015292,-0.00046745,-0.00355267,-0.00210392,-0.003876
 45,-0.00271413,-0.04693324,-0.00101432,0.00020619,0.00084502,-0.000014
 16,-0.00001700,0.00000245,-0.00000182,-0.00000918,0.00000290,-0.000002
 80,0.00001488,0.00000784,-0.00000154,0.00000683,0.00000297,-0.00000348
 ,0.00000592,0.00000623,0.00015298,0.00003861,-0.00006012,0.00003576,-0
 .00035510,-0.00009189,-0.00000876,0.00001026,-0.00015937,-0.00004132,0
 .00000788,0.00001047,-0.00010817,-0.00011556,0.00025379,-0.00008999,-0
 .00011785,0.00002759,0.00004204,-0.00002540,-0.00000748,0.00030443,0.0
 0052295,-0.00004976,-0.01096371,-0.02228119,0.00042704,0.00286040,0.00
 350461,0.04564926,-0.00009379,-0.00005981,0.00006888,0.00004089,0.0000
 1208,-0.00003762,0.00008913,0.00049930,0.00008182,-0.00079574,-0.00200
 948,0.00053720,0.00010527,0.00050637,-0.00034494,0.00033940,-0.0001985
 7,0.00002966,0.00007987,0.00012220,-0.00035855,0.00004762,0.00008210,0
 .00007382,0.00003935,-0.00007738,-0.00028158,0.00014375,-0.00005215,0.
 00002473,-0.00003957,0.00003914,0.00004056,-0.00006348,0.00001143,-0.0
 0003801,-0.00894342,-0.00595819,0.01751751,-0.11453264,-0.01142787,0.1
 1695054,-0.00306922,0.00531252,0.00159347,-0.00009434,-0.00008026,0.00
 007440,-0.00002563,-0.00002861,0.00002053,-0.00001314,0.00005195,0.000
 03253,-0.00000222,0.00004747,0.00001961,-0.00000064,-0.00001652,-0.000
 00833,0.00019570,0.00016830,-0.00011854,0.00005028,0.00021362,0.000008
 56,0.00004537,-0.00010467,0.00000915,-0.00000886,-0.00001614,-0.000027
 41,-0.00006295,-0.00004508,0.00018180,-0.00005590,-0.00013666,-0.00002
 629,0.00000332,0.00000323,0.00000044,0.00032652,-0.00047956,-0.0005965
 9,0.01245991,0.00191359,-0.01873606,-0.00793154,-0.00026299,0.01266351
 ,0.12176766,0.00009972,0.00006685,-0.00009264,-0.00005670,0.00000654,0
 .00005406,-0.00009462,-0.00056212,-0.00005913,0.00114660,0.00202734,-0
 .00077762,-0.00030938,-0.00007482,0.00048020,-0.00059836,0.00023942,-0
 .00000337,0.00014890,-0.00022900,-0.00034763,-0.00009246,0.00017059,0.
 00013683,-0.00000376,0.00004316,-0.00000341,0.00000499,-0.00004544,-0.
 00002335,0.00000859,0.00001457,0.00002746,0.00000354,0.00002423,0.0000
 0978,0.00914962,0.00427755,-0.02223796,-0.01226556,-0.04911321,0.02470
 095,0.00510578,-0.00524348,-0.00219453,0.00009657,0.00007138,-0.000089
 37,0.00001505,0.00000939,-0.00002341,0.00001333,-0.00004501,-0.0000285
 8,-0.00000022,-0.00003765,-0.00001074,0.00000195,0.00001653,0.00000720
 ,-0.00013333,-0.00021702,0.00008230,-0.00003346,-0.00017733,0.00011677
 ,-0.00048488,-0.00036894,-0.00025255,0.00005654,0.00003136,-0.00001461
 ,0.00002967,-0.00006074,0.00004675,-0.00000885,-0.00004428,0.00004205,
 -0.00001012,0.00000660,0.00000415,-0.00039694,0.00078014,0.00051760,-0
 .00007125,-0.00148383,-0.00055974,-0.01329948,-0.00116232,0.02538155,0
 .01197454,0.05108233,0.00001918,-0.00000847,-0.00002176,-0.00000790,0.
 00001790,0.00002244,-0.00008197,-0.00002965,-0.00000988,0.00005646,0.0
 0074413,0.00044800,-0.00006244,-0.00024358,-0.00004751,0.00029223,0.00
 010478,0.00027943,0.00049943,-0.00022257,-0.00053432,-0.00018949,0.000
 24067,0.00021704,-0.00003967,0.00017954,-0.00021112,0.00018425,-0.0001
 1562,0.00001112,-0.00005930,0.00003660,0.00004373,-0.00007312,0.000023
 90,-0.00004284,-0.00004616,0.00008040,-0.00317258,0.11813720,0.0234653
 8,-0.25199289,0.00022090,-0.00063004,0.00131998,-0.00000244,0.00001740
 ,-0.00001352,0.00001202,0.00000412,0.00000092,0.00000223,-0.00000762,-
 0.00000362,-0.00000423,-0.00000516,-0.00000368,0.00000695,-0.00000141,
 0.00000206,-0.00005790,-0.00004003,0.00003032,0.00001554,-0.00018707,-
 0.00005663,-0.00053261,-0.00022326,0.00002396,0.00004654,0.00005779,-0
 .00001949,-0.00001635,-0.00009131,0.00022399,-0.00005019,-0.00011227,0
 .00009129,-0.00000394,0.00000361,0.00000603,0.00015625,-0.00041866,0.0
 0019492,0.01280128,0.00228433,-0.01825451,-0.00187126,-0.00003941,0.00
 148118,-0.12935174,-0.02488826,0.26998876,0.00028372,0.00044079,0.0000
 7094,0.00334759,0.00039973,0.00285783,0.00579901,0.00241753,-0.0007403
 3,-0.00196571,0.00106866,-0.00192900,-0.00031607,0.00057801,0.00131423
 ,-0.00016232,0.00008703,-0.00016585,-0.00000662,0.00002244,0.00001040,
 0.00002154,0.00000277,-0.00002864,-0.00001136,0.00005474,0.00005996,-0
 .00005872,-0.00001033,-0.00001797,0.00004587,-0.00001489,-0.00000319,0
 .00002824,-0.00000362,0.00000783,0.00005203,0.00002785,0.00011458,0.00
 000818,-0.00000652,-0.00000395,0.00007429,-0.00037379,0.00001288,-0.14
 254685,-0.12758683,0.06463754,-0.00555026,-0.01434930,0.00591517,-0.00
 108538,-0.00009275,-0.00214142,0.00115297,0.00026325,0.00525050,-0.000
 43696,0.00100346,-0.00028110,0.00005522,-0.00003483,-0.00010615,0.0000
 1733,-0.00002028,-0.00001965,-0.00000035,-0.00000026,-0.00000724,-0.00
 001533,-0.00001805,0.00002054,0.00000735,-0.00000470,-0.00000952,0.000
 03070,-0.00005514,-0.00007316,-0.00000570,0.00000008,-0.00000255,-0.00
 001397,0.00001715,0.00001419,-0.00000258,0.00000440,-0.00000268,0.0000
 0220,-0.00000306,0.00000172,0.00000300,0.00000048,0.00000053,0.1417824
 8,-0.00081030,-0.00109819,0.00046322,0.00112993,-0.00220700,-0.0040752
 7,-0.01515694,-0.01578581,0.00909620,-0.00048313,-0.00189143,0.0016684
 6,-0.00087093,0.00076935,0.00081256,0.00064497,0.00043317,-0.00019567,
 0.00013008,0.00010404,0.00003695,-0.00006172,-0.00012932,-0.00001592,-
 0.00002490,-0.00008370,-0.00006452,0.00015767,0.00004284,0.00006860,-0
 .00009379,0.00001544,-0.00000696,-0.00007649,-0.00003484,-0.00004913,-
 0.00020499,0.00010972,0.00001197,0.00008398,0.00006747,0.00002163,-0.0
 0011546,0.00075550,0.00012909,-0.12770822,-0.21838523,0.07180042,0.004
 50765,0.00738110,-0.00377674,0.00105329,0.00073913,0.00017926,0.000473
 60,0.00064753,-0.00233932,0.00052221,-0.00001275,-0.00020161,-0.000227
 00,0.00014815,0.00026508,-0.00004222,0.00002768,0.00004439,-0.00003910
 ,-0.00001203,-0.00001149,0.00003309,0.00009766,0.00001831,0.00001055,-
 0.00001325,0.00001442,0.00010880,0.00000818,0.00004016,0.00001285,0.00
 000273,0.00000302,0.00001040,-0.00000075,0.00001127,-0.00000411,-0.000
 00560,-0.00000214,-0.00002924,0.00004061,0.00000012,-0.00000730,0.0000
 0012,0.00000438,0.13680770,0.22773993,-0.00042215,-0.00096966,0.000202
 85,0.00328765,-0.00311386,0.00137893,-0.00750188,-0.00938806,0.0090553
 0,-0.00157304,-0.00008684,-0.00225236,0.00064105,-0.00104806,-0.000472
 70,0.00017894,0.00025358,-0.00020124,0.00002309,0.00004423,0.00003604,
 -0.00004426,-0.00005160,-0.00001583,-0.00004347,0.00000239,-0.00002441
 ,0.00005748,0.00002177,0.00003345,-0.00002521,-0.00000103,-0.00000910,
 -0.00002839,-0.00001928,-0.00003216,0.00008642,0.00001171,-0.00007192,
 0.00001340,0.00001321,0.00001883,-0.00031297,0.00089680,0.00038057,0.0
 6495031,0.07174597,-0.08134220,0.01244158,0.01596117,-0.00306474,-0.00
 173635,0.00144013,-0.00066857,0.00520341,-0.00221603,-0.00034038,-0.00
 051599,-0.00062845,-0.00073670,-0.00020802,0.00009179,0.00019872,-0.00
 001631,-0.00000542,0.00001279,-0.00001424,-0.00000273,-0.00001744,0.00
 001820,0.00002359,0.00002135,0.00000465,-0.00000267,0.00001377,-0.0000
 3191,0.00001891,0.00002428,0.00000469,0.00000059,0.00000210,-0.0000109
 8,0.00000992,0.00003067,-0.00000422,0.00000200,-0.00000226,-0.00001027
 ,0.00001236,-0.00000348,-0.00000869,0.00000374,0.00000023,-0.07459833,
 -0.07398416,0.07810225,-0.00008130,0.00012170,-0.00003766,0.00502560,-
 0.00163156,0.00306481,-0.00004463,-0.00029780,-0.00087956,-0.00047321,
 0.00015978,-0.00030643,0.00011448,-0.00003489,0.00008850,0.00000008,0.
 00004374,-0.00000979,-0.00000387,-0.00001524,-0.00001274,0.00000131,0.
 00000538,-0.00000097,0.00000033,-0.00000073,-0.00000114,-0.00000824,0.
 00000157,0.00000104,0.00000598,-0.00000211,-0.00000123,0.00000378,0.00
 000092,-0.00000057,-0.00000512,0.00000587,0.00002221,-0.00000102,-0.00
 000066,-0.00000092,0.00000259,0.00001876,0.00000413,0.00150890,-0.0036
 6895,0.00277429,-0.00629463,0.00426045,0.01210426,-0.00071766,0.001068
 08,-0.00132889,-0.17147190,0.02539858,0.14891107,0.00369522,-0.0008076
 9,0.00096875,-0.00010720,0.00003327,-0.00017721,0.00000365,-0.00000295
 ,-0.00000480,0.00000677,0.00000131,0.00000095,-0.00000342,-0.00000608,
 0.00000011,-0.00000034,-0.00000034,0.00000043,-0.00000077,-0.00000099,
 -0.00000136,-0.00000141,-0.00000010,0.00000042,0.00000132,0.00000410,0
 .00000044,0.00000019,0.00000010,-0.00000068,0.00000028,-0.00000119,0.0
 0000027,0.00000029,-0.00000005,-0.00000004,-0.00036372,0.00028869,0.00
 036922,0.17136331,0.00127316,-0.00018757,-0.00128063,-0.00169618,-0.00
 379324,-0.00250047,0.00011823,-0.00117259,-0.00020931,0.00002302,-0.00
 009463,0.00024170,-0.00003626,0.00011852,-0.00001188,0.00003418,0.0000
 3282,-0.00000275,-0.00000096,-0.00000613,-0.00000480,0.00000193,0.0000
 0307,0.00000163,0.00000304,-0.00000628,-0.00000011,-0.00000197,0.00000
 135,-0.00000186,0.00000078,-0.00000045,0.00000081,0.00000088,0.0000007
 5,0.00000145,-0.00002639,0.00002725,0.00002736,0.00000233,0.00000432,-
 0.00000168,0.00003537,0.00006538,-0.00001963,-0.00367439,-0.00331568,0
 .00085715,-0.01515394,0.00630265,0.01696228,0.00009089,0.00116695,0.00
 110388,0.02657720,-0.06303585,-0.03654045,0.01835398,0.00065139,-0.020
 88664,-0.00009996,-0.00036339,0.00003038,0.00000357,-0.00000085,-0.000
 00131,0.00000104,0.00000054,0.00000082,0.00000117,-0.00000011,-0.00000
 094,-0.00000068,0.00000036,-0.00000120,0.00000328,-0.00000156,-0.00000
 039,-0.00000005,0.00000029,-0.00000018,0.00000277,-0.00000007,-0.00000
 388,-0.00000005,-0.00000026,0.00000065,-0.00000126,0.00000136,0.000000
 92,0.00000119,-0.00000104,-0.00000016,-0.00060655,0.00052342,0.0008331
 9,-0.02587450,0.06227527,0.00033925,-0.00018441,-0.00056165,0.00314239
 ,-0.00243751,0.00427034,-0.00090234,0.00013275,0.00017487,-0.00017250,
 0.00010165,-0.00059050,0.00009976,-0.00009749,0.00013850,-0.00004060,-
 0.00000702,-0.00005677,0.00000115,0.00002138,0.00001483,-0.00000315,-0
 .00000580,-0.00000267,-0.00000270,0.00000024,-0.00000028,0.00000700,0.
 00000198,0.00000400,-0.00000346,0.00000046,-0.00000165,-0.00000346,-0.
 00000209,-0.00000383,0.00001027,-0.00001069,0.00002811,0.00000039,-0.0
 0000122,-0.00000261,0.00001512,0.00004629,-0.00000417,0.00280778,0.000
 88621,0.00267529,0.00531117,-0.00368374,-0.00316882,-0.00166587,0.0001
 0612,-0.00051026,0.14930765,-0.03538003,-0.20936542,0.00760176,-0.0004
 6315,-0.00333421,-0.00023237,-0.00005033,-0.00007699,0.00000001,0.0000
 0561,0.00000278,-0.00000528,-0.00000240,-0.00000231,0.00000041,0.00000
 098,0.00000146,0.00000010,-0.00000035,0.00000187,-0.00000011,0.0000017
 0,0.00000156,0.00000052,-0.00000010,0.00000042,-0.00000331,0.00000220,
 0.00000234,-0.00000005,-0.00000039,-0.00000095,-0.00000019,0.00000037,
 0.00000049,0.00000026,-0.00000031,-0.00000029,0.00002501,-0.00010117,-
 0.00015698,-0.16303520,0.04013893,0.21226644,-0.00033902,-0.00019311,-
 0.00295836,-0.00620328,-0.01629864,0.00614140,0.00037748,0.00049910,0.
 00480714,0.00003729,-0.00092351,-0.00036725,-0.00038651,0.00004154,0.0
 0031510,0.00002516,-0.00006486,0.00001259,0.00001651,0.00003718,0.0000
 3173,-0.00001356,-0.00002148,-0.00000651,-0.00001072,-0.00000624,-0.00
 000878,0.00002819,0.00000635,0.00001348,-0.00001515,0.00000278,-0.0000
 0323,-0.00001447,-0.00000698,-0.00001232,-0.00000176,0.00001308,-0.000
 00514,0.00000449,0.00000186,0.00000881,0.00006368,0.00010727,0.0000181
 6,-0.00055309,0.00115852,-0.00005316,0.00453023,0.00003305,0.00317799,
 0.00019752,0.00042719,0.00014407,0.00586122,0.00418535,-0.00134569,-0.
 13778855,-0.12666738,0.06408477,-0.00034332,0.00018657,-0.00031023,-0.
 00002557,0.00002261,0.00001890,-0.00001516,-0.00000385,-0.00000612,0.0
 0000704,0.00001367,0.00000513,0.00000298,-0.00000252,0.00000511,0.0000
 0306,0.00000543,0.00000627,0.00000170,-0.00000039,0.00000097,-0.000006
 65,-0.00000008,0.00000753,-0.00000185,-0.00000089,-0.00000058,-0.00000
 240,0.00000563,0.00000009,-0.00000424,0.00000356,-0.00000022,-0.000169
 82,-0.00001965,-0.00017344,-0.00215565,0.00064514,-0.00259943,0.136894
 25,0.00056737,0.00036589,0.00059618,0.00387034,0.00687316,-0.00340640,
 0.00011686,0.00045437,-0.00165054,0.00024809,0.00031023,-0.00013590,0.
 00014555,-0.00002025,-0.00010917,0.00000425,0.00003158,-0.00003502,-0.
 00000799,-0.00000919,-0.00000767,0.00000570,0.00000914,0.00000251,0.00
 000346,0.00000223,0.00000326,-0.00001209,-0.00000147,-0.00000410,0.000
 00658,-0.00000141,0.00000070,0.00000584,0.00000268,0.00000400,-0.00001
 846,0.00000874,0.00004739,-0.00000048,0.00000057,-0.00000649,0.0000373
 6,0.00007499,-0.00005237,0.00063171,-0.00001777,-0.00032431,0.00031461
 ,-0.00160446,-0.00350546,-0.00044738,-0.00127318,-0.00003524,-0.015458
 40,-0.01574113,0.00970415,-0.12787404,-0.22326660,0.06970501,0.0001119
 2,0.00007641,0.00014647,0.00001473,-0.00000288,-0.00000772,0.00000351,
 0.00000048,0.00000170,-0.00000136,-0.00000466,-0.00000207,-0.00000118,
 0.00000141,-0.00000216,-0.00000127,-0.00000226,-0.00000160,-0.00000102
 ,0.00000003,-0.00000033,0.00000099,-0.00000092,-0.00000402,0.00000017,
 0.00000066,0.00000072,0.00000040,-0.00000137,0.00000037,0.00000222,-0.
 00000186,-0.00000037,-0.00001519,0.00000613,0.00013084,0.00093352,0.00
 080401,0.00098134,0.13681370,0.23292669,-0.00271331,0.00142628,0.00023
 231,0.01323030,0.01774089,-0.00259353,0.00460784,-0.00202058,-0.000864
 29,0.00010983,0.00109042,0.00027988,0.00031132,-0.00007989,-0.00041718
 ,-0.00002557,0.00009411,-0.00001899,-0.00002033,-0.00004597,-0.0000342
 2,0.00001371,0.00002807,0.00000540,0.00001099,0.00000802,0.00000437,-0
 .00003397,-0.00000590,-0.00001117,0.00001935,-0.00000388,0.00000132,0.
 00001679,0.00000790,0.00001017,-0.00000778,-0.00000595,0.00004226,-0.0
 0000433,-0.00000041,-0.00001763,-0.00005059,-0.00009195,-0.00000209,-0
 .00016603,-0.00087757,-0.00109217,0.00320811,-0.00326928,0.00303883,-0
 .00015512,-0.00095005,0.00002440,-0.00814484,-0.01082255,0.00804139,0.
 06368383,0.06836537,-0.07890871,-0.00028937,0.00008775,-0.00029551,0.0
 0003477,-0.00001996,-0.00002711,0.00001489,0.00000412,0.00000753,-0.00
 000640,-0.00001582,-0.00000472,-0.00000376,0.00000332,-0.00000371,-0.0
 0000604,-0.00000451,-0.00000629,-0.00000332,-0.00000046,-0.00000003,0.
 00000484,-0.00000005,-0.00001096,-0.00000023,0.00000067,0.00000140,0.0
 0000267,-0.00000598,0.00000051,0.00000536,-0.00000417,-0.00000077,-0.0
 0018315,0.00013459,-0.00009965,-0.00251173,0.00126712,-0.00174295,-0.0
 7094876,-0.07203371,0.07446190\\0.00000013,0.00000338,0.00000977,0.000
 00364,-0.00000022,0.00000069,-0.00000570,-0.00000496,0.00000210,0.0000
 0874,0.00001291,-0.00000249,-0.00001747,-0.00000072,0.00000704,0.00000
 491,-0.00001517,-0.00000450,-0.00000107,0.00001773,-0.00001013,-0.0000
 0169,-0.00001411,-0.00000349,0.00001414,0.00001348,-0.00000133,-0.0000
 1466,0.00001288,0.00001307,0.00001277,0.00000797,-0.00000127,-0.000000
 09,0.00000087,-0.00001730,-0.00000646,-0.00000123,-0.00000630,0.000005
 83,-0.00000746,0.00001052,-0.00000824,-0.00001445,0.00000564,-0.000002
 05,0.00000571,0.00000107,0.00000445,-0.00000323,-0.00001017,-0.0000030
 9,0.00000681,-0.00000609,0.00000198,-0.00000181,0.00000034,0.00000365,
 0.00000608,0.00000735,0.00000775,-0.00000108,0.00000553,-0.00000767,-0
 .00000663,-0.00000100,-0.00000271,0.00000237,-0.00000016,-0.00000215,-
 0.00000138,-0.00001017,-0.00000060,-0.00000105,0.00000306,-0.00000022,
 0.00000252,-0.00000670,-0.00000340,0.00000561,-0.00000481,0.00000205,-
 0.00001369,0.00000437,0.00000342,-0.00000524,0.00000238,0.00000173,-0.
 00000498,0.00000826,0.00000022,-0.00000620,0.00000434,-0.00000279,0.00
 000017,-0.00000620,0.00000092,0.00000458,0.00000021,0.00000376,0.00000
 054,0.00000636\\\@


 IF AT FIRST YOU DON'T SUCCEED, TRY, TRY AGAIN.
 THEN GIVE UP;
 THERE'S NO USE BEING A DAMN FOOL ABOUT IT.

                                 -- W. C. FIELDS
 Job cpu time:  0 days  8 hours 17 minutes 10.3 seconds.
 File lengths (MBytes):  RWF=    866 Int=      0 D2E=      0 Chk=     20 Scr=      1
 Normal termination of Gaussian 09 at Fri Mar 22 23:58:07 2019.
