 Entering Gaussian System, Link 0=g09
 Initial command:
 /home/yuheng/proj/yuheng/g09/l1.exe /home/yuheng/proj/yuheng/g09_scratch/Gau-210207.inp -scrdir=/home/yuheng/proj/yuheng/g09_scratch/
 Entering Link 1 = /home/yuheng/proj/yuheng/g09/l1.exe PID=    210208.
  
 Copyright (c) 1988,1990,1992,1993,1995,1998,2003,2009,2010,
            Gaussian, Inc.  All Rights Reserved.
  
 This is part of the Gaussian(R) 09 program.  It is based on
 the Gaussian(R) 03 system (copyright 2003, Gaussian, Inc.),
 the Gaussian(R) 98 system (copyright 1998, Gaussian, Inc.),
 the Gaussian(R) 94 system (copyright 1995, Gaussian, Inc.),
 the Gaussian 92(TM) system (copyright 1992, Gaussian, Inc.),
 the Gaussian 90(TM) system (copyright 1990, Gaussian, Inc.),
 the Gaussian 88(TM) system (copyright 1988, Gaussian, Inc.),
 the Gaussian 86(TM) system (copyright 1986, Carnegie Mellon
 University), and the Gaussian 82(TM) system (copyright 1983,
 Carnegie Mellon University). Gaussian is a federally registered
 trademark of Gaussian, Inc.
  
 This software contains proprietary and confidential information,
 including trade secrets, belonging to Gaussian, Inc.
  
 This software is provided under written license and may be
 used, copied, transmitted, or stored only in accord with that
 written license.
  
 The following legend is applicable only to US Government
 contracts under FAR:
  
                    RESTRICTED RIGHTS LEGEND
  
 Use, reproduction and disclosure by the US Government is
 subject to restrictions as set forth in subparagraphs (a)
 and (c) of the Commercial Computer Software - Restricted
 Rights clause in FAR 52.227-19.
  
 Gaussian, Inc.
 340 Quinnipiac St., Bldg. 40, Wallingford CT 06492
  
  
 ---------------------------------------------------------------
 Warning -- This program may not be used in any manner that
 competes with the business of Gaussian, Inc. or will provide
 assistance to any competitor of Gaussian, Inc.  The licensee
 of this program is prohibited from giving any competitor of
 Gaussian, Inc. access to this program.  By using this program,
 the user acknowledges that Gaussian, Inc. is engaged in the
 business of creating and licensing software in the field of
 computational chemistry and represents and warrants to the
 licensee that it is not a competitor of Gaussian, Inc. and that
 it will not use this program in any manner prohibited above.
 ---------------------------------------------------------------
  

 Cite this work as:
 Gaussian 09, Revision B.01,
 M. J. Frisch, G. W. Trucks, H. B. Schlegel, G. E. Scuseria, 
 M. A. Robb, J. R. Cheeseman, G. Scalmani, V. Barone, B. Mennucci, 
 G. A. Petersson, H. Nakatsuji, M. Caricato, X. Li, H. P. Hratchian, 
 A. F. Izmaylov, J. Bloino, G. Zheng, J. L. Sonnenberg, M. Hada, 
 M. Ehara, K. Toyota, R. Fukuda, J. Hasegawa, M. Ishida, T. Nakajima, 
 Y. Honda, O. Kitao, H. Nakai, T. Vreven, J. A. Montgomery, Jr., 
 J. E. Peralta, F. Ogliaro, M. Bearpark, J. J. Heyd, E. Brothers, 
 K. N. Kudin, V. N. Staroverov, T. Keith, R. Kobayashi, J. Normand, 
 K. Raghavachari, A. Rendell, J. C. Burant, S. S. Iyengar, J. Tomasi, 
 M. Cossi, N. Rega, J. M. Millam, M. Klene, J. E. Knox, J. B. Cross, 
 V. Bakken, C. Adamo, J. Jaramillo, R. Gomperts, R. E. Stratmann, 
 O. Yazyev, A. J. Austin, R. Cammi, C. Pomelli, J. W. Ochterski, 
 R. L. Martin, K. Morokuma, V. G. Zakrzewski, G. A. Voth, 
 P. Salvador, J. J. Dannenberg, S. Dapprich, A. D. Daniels, 
 O. Farkas, J. B. Foresman, J. V. Ortiz, J. Cioslowski, 
 and D. J. Fox, Gaussian, Inc., Wallingford CT, 2010.
 
 ******************************************
 Gaussian 09:  EM64L-G09RevB.01 12-Aug-2010
                22-Mar-2019 
 ******************************************
 %mem=16gb
 %nprocshared=20
 Will use up to   20 processors via shared memory.
 %chk=1b-conf-19.chk
 ----------------------------------------------------------------------
 # m062x/6-31+G(d,p) opt freq=noraman integral(ultrafinegrid) scrf=(ief
 pcm,read,solvent=methanol)
 ----------------------------------------------------------------------
 1/14=-1,18=20,19=15,26=3,38=1,40=2/1,3;
 2/9=110,12=2,17=6,18=5,40=1/2;
 3/5=1,6=6,7=111,11=2,16=1,25=1,30=1,70=2203,71=1,72=3,74=-55,75=-5/1,2,3;
 4//1;
 5/5=2,38=5,53=3/2;
 6/7=2,8=2,9=2,10=2,28=1/1;
 7//1,2,3,16;
 1/14=-1,18=20,19=15/3(2);
 2/9=110/2;
 99//99;
 2/9=110/2;
 3/5=1,6=6,7=111,11=2,16=1,25=1,30=1,70=2205,71=1,72=3,74=-55,75=-5/1,2,3;
 4/5=5,16=3/1;
 5/5=2,38=5,53=3/2;
 7//1,2,3,16;
 1/14=-1,18=20,19=15/3(-5);
 2/9=110/2;
 6/7=2,8=2,9=2,10=2,19=2,28=1/1;
 99/9=1/99;
 ----------------------------------------------------------------------
 Candidate Structure: 1b, Conformer: 19 geometry optimization and frequ
 ency calculation with methanol solvation
 ----------------------------------------------------------------------
 Symbolic Z-matrix:
 Charge =  0 Multiplicity = 1
 O                    -0.36494   0.31182  -0.08242 
 C                    -0.91977   1.56197  -0.07235 
 C                    -0.67126   2.52298  -1.09191 
 C                     0.22355   2.23633  -2.24606 
 N                     0.54748   3.10001  -3.1209 
 C                     1.51113   2.49729  -4.00469 
 C                     2.90117   3.17857  -3.79373 
 O                     2.74185   4.44078  -4.41526 
 C                     3.36795   3.50364  -2.345 
 C                     3.8257    2.30924  -1.50895 
 O                     3.0174    2.08345  -0.43987 
 O                     4.83138   1.65407  -1.76089 
 C                     1.33846   0.99144  -3.74885 
 C                     2.54186   0.05549  -3.92862 
 O                     0.77836   1.00025  -2.45469 
 C                    -1.28334   3.79528  -1.00065 
 C                    -2.12746   4.10933   0.07972 
 Cl                   -2.8645    5.66607   0.17363 
 C                    -2.37018   3.15502   1.08363 
 C                    -1.76702   1.88606   1.00604 
 H                     0.16856   0.15809  -0.85339 
 H                     1.21155   2.66183  -5.04272 
 H                     3.68145   2.63287  -4.32669 
 H                     1.89919   4.76819  -4.12156 
 H                     2.60892   4.0643   -1.79871 
 H                     4.2298    4.16954  -2.40008 
 H                     3.36002   1.36511   0.06978 
 H                     0.55277   0.62815  -4.41539 
 H                     3.34603   0.25202  -3.22866 
 H                     2.24084  -0.98185  -3.78235 
 H                     2.94979   0.1374   -4.93629 
 H                    -1.10846   4.54263  -1.7609 
 H                    -3.01811   3.39674   1.91331 
 H                    -1.95535   1.15624   1.7802 
 

 GradGradGradGradGradGradGradGradGradGradGradGradGradGradGradGradGradGrad
 Berny optimization.
 Initialization pass.
                           ----------------------------
                           !    Initial Parameters    !
                           ! (Angstroms and Degrees)  !
 --------------------------                            --------------------------
 ! Name  Definition              Value          Derivative Info.                !
 --------------------------------------------------------------------------------
 ! R1    R(1,2)                  1.3678         estimate D2E/DX2                !
 ! R2    R(1,21)                 0.9501         estimate D2E/DX2                !
 ! R3    R(2,3)                  1.423          estimate D2E/DX2                !
 ! R4    R(2,20)                 1.4092         estimate D2E/DX2                !
 ! R5    R(3,4)                  1.4883         estimate D2E/DX2                !
 ! R6    R(3,16)                 1.4148         estimate D2E/DX2                !
 ! R7    R(4,5)                  1.2713         estimate D2E/DX2                !
 ! R8    R(4,15)                 1.3709         estimate D2E/DX2                !
 ! R9    R(5,6)                  1.4398         estimate D2E/DX2                !
 ! R10   R(6,7)                  1.5623         estimate D2E/DX2                !
 ! R11   R(6,13)                 1.5372         estimate D2E/DX2                !
 ! R12   R(6,22)                 1.0928         estimate D2E/DX2                !
 ! R13   R(7,8)                  1.4159         estimate D2E/DX2                !
 ! R14   R(7,9)                  1.5564         estimate D2E/DX2                !
 ! R15   R(7,23)                 1.0912         estimate D2E/DX2                !
 ! R16   R(8,24)                 0.9505         estimate D2E/DX2                !
 ! R17   R(9,10)                 1.5281         estimate D2E/DX2                !
 ! R18   R(9,25)                 1.0904         estimate D2E/DX2                !
 ! R19   R(9,26)                 1.0905         estimate D2E/DX2                !
 ! R20   R(10,11)                1.3591         estimate D2E/DX2                !
 ! R21   R(10,12)                1.2264         estimate D2E/DX2                !
 ! R22   R(11,27)                0.9451         estimate D2E/DX2                !
 ! R23   R(13,14)                1.5351         estimate D2E/DX2                !
 ! R24   R(13,15)                1.4102         estimate D2E/DX2                !
 ! R25   R(13,28)                1.0925         estimate D2E/DX2                !
 ! R26   R(14,29)                1.0841         estimate D2E/DX2                !
 ! R27   R(14,30)                1.09           estimate D2E/DX2                !
 ! R28   R(14,31)                1.0902         estimate D2E/DX2                !
 ! R29   R(15,21)                1.9093         estimate D2E/DX2                !
 ! R30   R(16,17)                1.4065         estimate D2E/DX2                !
 ! R31   R(16,32)                1.0803         estimate D2E/DX2                !
 ! R32   R(17,18)                1.725          estimate D2E/DX2                !
 ! R33   R(17,19)                1.4062         estimate D2E/DX2                !
 ! R34   R(19,20)                1.4072         estimate D2E/DX2                !
 ! R35   R(19,33)                1.0801         estimate D2E/DX2                !
 ! R36   R(20,34)                1.0805         estimate D2E/DX2                !
 ! A1    A(2,1,21)             112.4362         estimate D2E/DX2                !
 ! A2    A(1,2,3)              122.7626         estimate D2E/DX2                !
 ! A3    A(1,2,20)             117.3697         estimate D2E/DX2                !
 ! A4    A(3,2,20)             119.8676         estimate D2E/DX2                !
 ! A5    A(2,3,4)              122.0451         estimate D2E/DX2                !
 ! A6    A(2,3,16)             119.049          estimate D2E/DX2                !
 ! A7    A(4,3,16)             118.9033         estimate D2E/DX2                !
 ! A8    A(3,4,5)              123.7806         estimate D2E/DX2                !
 ! A9    A(3,4,15)             122.3455         estimate D2E/DX2                !
 ! A10   A(5,4,15)             113.8737         estimate D2E/DX2                !
 ! A11   A(4,5,6)              107.9723         estimate D2E/DX2                !
 ! A12   A(5,6,7)              109.2725         estimate D2E/DX2                !
 ! A13   A(5,6,13)             103.4583         estimate D2E/DX2                !
 ! A14   A(5,6,22)             109.667          estimate D2E/DX2                !
 ! A15   A(7,6,13)             120.3081         estimate D2E/DX2                !
 ! A16   A(7,6,22)             107.8487         estimate D2E/DX2                !
 ! A17   A(13,6,22)            105.9494         estimate D2E/DX2                !
 ! A18   A(6,7,8)              103.2577         estimate D2E/DX2                !
 ! A19   A(6,7,9)              118.9213         estimate D2E/DX2                !
 ! A20   A(6,7,23)             110.6217         estimate D2E/DX2                !
 ! A21   A(8,7,9)              104.8416         estimate D2E/DX2                !
 ! A22   A(8,7,23)             108.1719         estimate D2E/DX2                !
 ! A23   A(9,7,23)             110.1597         estimate D2E/DX2                !
 ! A24   A(7,8,24)             105.7339         estimate D2E/DX2                !
 ! A25   A(7,9,10)             115.8395         estimate D2E/DX2                !
 ! A26   A(7,9,25)             111.4064         estimate D2E/DX2                !
 ! A27   A(7,9,26)             108.5142         estimate D2E/DX2                !
 ! A28   A(10,9,25)            109.6528         estimate D2E/DX2                !
 ! A29   A(10,9,26)            105.5555         estimate D2E/DX2                !
 ! A30   A(25,9,26)            105.158          estimate D2E/DX2                !
 ! A31   A(9,10,11)            112.4612         estimate D2E/DX2                !
 ! A32   A(9,10,12)            123.4218         estimate D2E/DX2                !
 ! A33   A(11,10,12)           124.0907         estimate D2E/DX2                !
 ! A34   A(10,11,27)           109.5639         estimate D2E/DX2                !
 ! A35   A(6,13,14)            119.3228         estimate D2E/DX2                !
 ! A36   A(6,13,15)            101.0251         estimate D2E/DX2                !
 ! A37   A(6,13,28)            107.7579         estimate D2E/DX2                !
 ! A38   A(14,13,15)           115.0018         estimate D2E/DX2                !
 ! A39   A(14,13,28)           106.8326         estimate D2E/DX2                !
 ! A40   A(15,13,28)           106.0428         estimate D2E/DX2                !
 ! A41   A(13,14,29)           113.289          estimate D2E/DX2                !
 ! A42   A(13,14,30)           110.3671         estimate D2E/DX2                !
 ! A43   A(13,14,31)           110.8411         estimate D2E/DX2                !
 ! A44   A(29,14,30)           106.9026         estimate D2E/DX2                !
 ! A45   A(29,14,31)           107.7945         estimate D2E/DX2                !
 ! A46   A(30,14,31)           107.3899         estimate D2E/DX2                !
 ! A47   A(4,15,13)            107.821          estimate D2E/DX2                !
 ! A48   A(3,16,17)            120.6615         estimate D2E/DX2                !
 ! A49   A(3,16,32)            120.4426         estimate D2E/DX2                !
 ! A50   A(17,16,32)           118.8959         estimate D2E/DX2                !
 ! A51   A(16,17,18)           119.9836         estimate D2E/DX2                !
 ! A52   A(16,17,19)           120.0271         estimate D2E/DX2                !
 ! A53   A(18,17,19)           119.9892         estimate D2E/DX2                !
 ! A54   A(17,19,20)           119.9103         estimate D2E/DX2                !
 ! A55   A(17,19,33)           120.0035         estimate D2E/DX2                !
 ! A56   A(20,19,33)           120.0862         estimate D2E/DX2                !
 ! A57   A(2,20,19)            120.4844         estimate D2E/DX2                !
 ! A58   A(2,20,34)            119.852          estimate D2E/DX2                !
 ! A59   A(19,20,34)           119.6636         estimate D2E/DX2                !
 ! D1    D(21,1,2,3)            -2.0745         estimate D2E/DX2                !
 ! D2    D(21,1,2,20)          178.0502         estimate D2E/DX2                !
 ! D3    D(1,2,3,4)             -0.3824         estimate D2E/DX2                !
 ! D4    D(1,2,3,16)          -179.7886         estimate D2E/DX2                !
 ! D5    D(20,2,3,4)           179.4899         estimate D2E/DX2                !
 ! D6    D(20,2,3,16)            0.0838         estimate D2E/DX2                !
 ! D7    D(1,2,20,19)          179.8487         estimate D2E/DX2                !
 ! D8    D(1,2,20,34)           -0.1052         estimate D2E/DX2                !
 ! D9    D(3,2,20,19)           -0.0304         estimate D2E/DX2                !
 ! D10   D(3,2,20,34)         -179.9843         estimate D2E/DX2                !
 ! D11   D(2,3,4,5)           -174.5678         estimate D2E/DX2                !
 ! D12   D(2,3,4,15)             5.2407         estimate D2E/DX2                !
 ! D13   D(16,3,4,5)             4.8392         estimate D2E/DX2                !
 ! D14   D(16,3,4,15)         -175.3523         estimate D2E/DX2                !
 ! D15   D(2,3,16,17)           -0.0823         estimate D2E/DX2                !
 ! D16   D(2,3,16,32)          179.8585         estimate D2E/DX2                !
 ! D17   D(4,3,16,17)         -179.5073         estimate D2E/DX2                !
 ! D18   D(4,3,16,32)            0.4334         estimate D2E/DX2                !
 ! D19   D(3,4,5,6)            174.9209         estimate D2E/DX2                !
 ! D20   D(15,4,5,6)            -4.9022         estimate D2E/DX2                !
 ! D21   D(3,4,15,13)          168.4316         estimate D2E/DX2                !
 ! D22   D(5,4,15,13)          -11.7424         estimate D2E/DX2                !
 ! D23   D(4,5,6,7)           -111.4384         estimate D2E/DX2                !
 ! D24   D(4,5,6,13)            17.8616         estimate D2E/DX2                !
 ! D25   D(4,5,6,22)           130.5413         estimate D2E/DX2                !
 ! D26   D(5,6,7,8)            -73.9047         estimate D2E/DX2                !
 ! D27   D(5,6,7,9)             41.616          estimate D2E/DX2                !
 ! D28   D(5,6,7,23)           170.564          estimate D2E/DX2                !
 ! D29   D(13,6,7,8)           166.7562         estimate D2E/DX2                !
 ! D30   D(13,6,7,9)           -77.7231         estimate D2E/DX2                !
 ! D31   D(13,6,7,23)           51.2249         estimate D2E/DX2                !
 ! D32   D(22,6,7,8)            45.2489         estimate D2E/DX2                !
 ! D33   D(22,6,7,9)           160.7696         estimate D2E/DX2                !
 ! D34   D(22,6,7,23)          -70.2825         estimate D2E/DX2                !
 ! D35   D(5,6,13,14)         -150.4758         estimate D2E/DX2                !
 ! D36   D(5,6,13,15)          -23.3685         estimate D2E/DX2                !
 ! D37   D(5,6,13,28)           87.6111         estimate D2E/DX2                !
 ! D38   D(7,6,13,14)          -28.2676         estimate D2E/DX2                !
 ! D39   D(7,6,13,15)           98.8397         estimate D2E/DX2                !
 ! D40   D(7,6,13,28)         -150.1807         estimate D2E/DX2                !
 ! D41   D(22,6,13,14)          94.1643         estimate D2E/DX2                !
 ! D42   D(22,6,13,15)        -138.7284         estimate D2E/DX2                !
 ! D43   D(22,6,13,28)         -27.7488         estimate D2E/DX2                !
 ! D44   D(6,7,8,24)            45.2986         estimate D2E/DX2                !
 ! D45   D(9,7,8,24)           -79.9014         estimate D2E/DX2                !
 ! D46   D(23,7,8,24)          162.5676         estimate D2E/DX2                !
 ! D47   D(6,7,9,10)            74.4476         estimate D2E/DX2                !
 ! D48   D(6,7,9,25)           -51.7956         estimate D2E/DX2                !
 ! D49   D(6,7,9,26)          -167.1022         estimate D2E/DX2                !
 ! D50   D(8,7,9,10)          -170.878          estimate D2E/DX2                !
 ! D51   D(8,7,9,25)            62.8788         estimate D2E/DX2                !
 ! D52   D(8,7,9,26)           -52.4279         estimate D2E/DX2                !
 ! D53   D(23,7,9,10)          -54.712          estimate D2E/DX2                !
 ! D54   D(23,7,9,25)          179.0448         estimate D2E/DX2                !
 ! D55   D(23,7,9,26)           63.7381         estimate D2E/DX2                !
 ! D56   D(7,9,10,11)         -115.0823         estimate D2E/DX2                !
 ! D57   D(7,9,10,12)           66.7161         estimate D2E/DX2                !
 ! D58   D(25,9,10,11)          12.0424         estimate D2E/DX2                !
 ! D59   D(25,9,10,12)        -166.1592         estimate D2E/DX2                !
 ! D60   D(26,9,10,11)         124.8492         estimate D2E/DX2                !
 ! D61   D(26,9,10,12)         -53.3524         estimate D2E/DX2                !
 ! D62   D(9,10,11,27)        -177.2986         estimate D2E/DX2                !
 ! D63   D(12,10,11,27)          0.8889         estimate D2E/DX2                !
 ! D64   D(6,13,14,29)          64.3169         estimate D2E/DX2                !
 ! D65   D(6,13,14,30)        -175.8521         estimate D2E/DX2                !
 ! D66   D(6,13,14,31)         -57.0065         estimate D2E/DX2                !
 ! D67   D(15,13,14,29)        -55.9459         estimate D2E/DX2                !
 ! D68   D(15,13,14,30)         63.8851         estimate D2E/DX2                !
 ! D69   D(15,13,14,31)       -177.2693         estimate D2E/DX2                !
 ! D70   D(28,13,14,29)       -173.3114         estimate D2E/DX2                !
 ! D71   D(28,13,14,30)        -53.4804         estimate D2E/DX2                !
 ! D72   D(28,13,14,31)         65.3651         estimate D2E/DX2                !
 ! D73   D(6,13,15,4)           21.2253         estimate D2E/DX2                !
 ! D74   D(14,13,15,4)         151.1206         estimate D2E/DX2                !
 ! D75   D(28,13,15,4)         -91.068          estimate D2E/DX2                !
 ! D76   D(3,16,17,18)         179.9925         estimate D2E/DX2                !
 ! D77   D(3,16,17,19)           0.0268         estimate D2E/DX2                !
 ! D78   D(32,16,17,18)          0.0508         estimate D2E/DX2                !
 ! D79   D(32,16,17,19)       -179.9149         estimate D2E/DX2                !
 ! D80   D(16,17,19,20)          0.028          estimate D2E/DX2                !
 ! D81   D(16,17,19,33)        179.9736         estimate D2E/DX2                !
 ! D82   D(18,17,19,20)       -179.9378         estimate D2E/DX2                !
 ! D83   D(18,17,19,33)          0.0079         estimate D2E/DX2                !
 ! D84   D(17,19,20,2)          -0.0259         estimate D2E/DX2                !
 ! D85   D(17,19,20,34)        179.928          estimate D2E/DX2                !
 ! D86   D(33,19,20,2)        -179.9715         estimate D2E/DX2                !
 ! D87   D(33,19,20,34)         -0.0176         estimate D2E/DX2                !
 --------------------------------------------------------------------------------
 Trust Radius=3.00D-01 FncErr=1.00D-07 GrdErr=1.00D-06
 Number of steps in this run=    192 maximum allowed number of steps=    204.
 GradGradGradGradGradGradGradGradGradGradGradGradGradGradGradGradGradGrad

                          Input orientation:                          
 ---------------------------------------------------------------------
 Center     Atomic      Atomic             Coordinates (Angstroms)
 Number     Number       Type             X           Y           Z
 ---------------------------------------------------------------------
      1          8           0       -0.364940    0.311821   -0.082423
      2          6           0       -0.919774    1.561967   -0.072351
      3          6           0       -0.671259    2.522976   -1.091909
      4          6           0        0.223548    2.236335   -2.246063
      5          7           0        0.547481    3.100009   -3.120903
      6          6           0        1.511127    2.497293   -4.004695
      7          6           0        2.901174    3.178566   -3.793725
      8          8           0        2.741848    4.440783   -4.415263
      9          6           0        3.367947    3.503644   -2.344997
     10          6           0        3.825695    2.309244   -1.508946
     11          8           0        3.017399    2.083447   -0.439872
     12          8           0        4.831376    1.654065   -1.760887
     13          6           0        1.338456    0.991438   -3.748846
     14          6           0        2.541863    0.055494   -3.928623
     15          8           0        0.778363    1.000252   -2.454686
     16          6           0       -1.283341    3.795281   -1.000649
     17          6           0       -2.127459    4.109334    0.079719
     18         17           0       -2.864500    5.666068    0.173634
     19          6           0       -2.370176    3.155018    1.083628
     20          6           0       -1.767021    1.886057    1.006040
     21          1           0        0.168560    0.158088   -0.853394
     22          1           0        1.211554    2.661825   -5.042724
     23          1           0        3.681454    2.632868   -4.326689
     24          1           0        1.899192    4.768189   -4.121563
     25          1           0        2.608924    4.064299   -1.798714
     26          1           0        4.229795    4.169540   -2.400081
     27          1           0        3.360018    1.365112    0.069776
     28          1           0        0.552773    0.628145   -4.415392
     29          1           0        3.346033    0.252024   -3.228663
     30          1           0        2.240838   -0.981854   -3.782354
     31          1           0        2.949794    0.137398   -4.936285
     32          1           0       -1.108463    4.542630   -1.760900
     33          1           0       -3.018109    3.396737    1.913305
     34          1           0       -1.955347    1.156240    1.780204
 ---------------------------------------------------------------------
                    Distance matrix (angstroms):
                    1          2          3          4          5
     1  O    0.000000
     2  C    1.367775   0.000000
     3  C    2.449918   1.422953   0.000000
     4  C    2.954896   2.546955   1.488259   0.000000
     5  N    4.223608   3.716461   2.436208   1.271303   0.000000
     6  C    4.866224   4.716720   3.639751   2.195164   1.439781
     7  C    5.714848   5.573299   4.526796   3.233069   2.449231
     8  O    6.743438   6.368355   5.135364   3.988340   2.878939
     9  C    5.407534   5.226814   4.341327   3.391623   2.952961
    10  C    4.856551   5.014150   4.521305   3.677515   3.737700
    11  O    3.834924   3.988527   3.771543   3.330361   3.784418
    12  O    5.623216   5.994611   5.610840   4.669744   4.721457
    13  C    4.099524   4.352209   3.666589   2.247475   2.337953
    14  C    4.827884   5.396594   4.945661   3.600231   3.728142
    15  O    2.721895   2.979046   2.505445   1.370855   2.214979
    16  C    3.717673   2.445733   1.414826   2.500417   2.886311
    17  C    4.189734   2.823244   2.451482   3.800608   4.291622
    18  Cl   5.914501   4.548199   4.036203   5.210954   5.392610
    19  C    3.669389   2.444947   2.831741   4.319517   5.117991
    20  C    2.372510   1.409180   2.451071   3.828999   4.884901
    21  H    0.950080   1.940458   2.520889   2.502331   3.733641
    22  H    5.710730   5.518773   4.378722   2.996416   2.079999
    23  H    6.306691   6.357477   5.424204   4.055041   3.390270
    24  H    6.426520   5.884093   4.563661   3.568693   2.368811
    25  H    5.086316   4.657650   3.692540   3.038354   2.632031
    26  H    6.431572   6.223811   5.333181   4.450957   3.901656
    27  H    3.874003   4.286674   4.352167   3.994945   4.593546
    28  H    4.440369   4.680002   4.016737   2.720414   2.790312
    29  H    4.865565   5.465836   5.085428   3.827911   3.994311
    30  H    4.706715   5.497692   5.291752   4.097120   4.468398
    31  H    5.880294   6.376583   5.795018   4.367522   4.224190
    32  H    4.611925   3.430911   2.172026   2.707145   2.583198
    33  H    4.531991   3.422312   3.911838   5.399557   6.176142
    34  H    2.590718   2.160784   3.430143   4.703723   5.836372
                    6          7          8          9         10
     6  C    0.000000
     7  C    1.562329   0.000000
     8  O    2.336749   1.415940   0.000000
     9  C    2.686098   1.556395   2.357166   0.000000
    10  C    3.409010   2.613556   3.763623   1.528105   0.000000
    11  O    3.892054   3.530032   4.629978   2.401946   1.359134
    12  O    4.095090   3.190958   4.379228   2.429764   1.226429
    13  C    1.537164   2.688425   3.783068   3.521478   3.597238
    14  C    2.651525   3.146566   4.416738   3.883301   3.547175
    15  O    2.276094   3.323312   4.419999   3.603463   3.448785
    16  C    4.303268   5.068706   5.317745   4.850444   5.344990
    17  C    5.702668   6.415376   6.635124   6.037019   6.419052
    18  Cl   6.829764   7.427691   7.347819   7.061372   7.671900
    19  C    6.433362   7.181661   7.617334   6.693509   6.769460
    20  C    6.018914   6.819118   7.499803   6.341446   6.146765
    21  H    4.147899   5.023546   6.135976   4.863507   4.293234
    22  H    1.092849   2.163755   2.429032   3.554774   4.409720
    23  H    2.198268   1.091180   2.039427   2.187154   2.839932
    24  H    2.306777   1.907445   0.950539   2.629164   4.072296
    25  H    2.920106   2.202272   2.646835   1.090355   2.155160
    26  H    3.572443   2.165527   2.519626   1.090520   2.101932
    27  H    4.615360   4.292528   5.473341   3.225602   1.897526
    28  H    2.140287   3.522230   4.396391   4.525509   4.688874
    29  H    3.001723   3.013610   4.395311   3.369626   2.723905
    30  H    3.561794   4.212513   5.482388   4.843146   4.302497
    31  H    2.916629   3.249078   4.339796   4.268634   4.150996
    32  H    4.010021   4.697897   4.677704   4.632376   5.421938
    33  H    7.506377   8.225309   8.620784   7.676345   7.728654
    34  H    6.876040   7.664482   8.440123   7.131974   6.750435
                   11         12         13         14         15
    11  O    0.000000
    12  O    2.284724   0.000000
    13  C    3.867899   4.073272   0.000000
    14  C    4.063264   3.535022   1.535089   0.000000
    15  O    3.200948   4.163621   1.410189   2.484953   0.000000
    16  C    4.662747   6.523230   4.721011   6.098461   3.765240
    17  C    5.553716   7.605364   6.032558   7.369056   4.953120
    18  Cl   6.914355   8.891853   7.409646   8.805442   6.476755
    19  C    5.700463   7.887108   6.464351   7.671886   5.203458
    20  C    5.002029   7.158809   5.749197   6.802084   4.386371
    21  H    3.463220   4.980296   3.232147   3.885888   1.909250
    22  H    4.978137   4.988902   2.116700   3.131119   3.105869
    23  H    3.981228   2.977199   2.918533   2.846047   3.820702
    24  H    4.691809   4.885516   3.836299   4.760225   4.269905
    25  H    2.436612   3.278712   3.854812   4.539992   3.628999
    26  H    3.108715   2.664223   4.503259   4.702226   4.686123
    27  H    0.945058   2.366372   4.336844   4.286219   3.629184
    28  H    4.898678   5.138614   1.092503   2.126347   2.008413
    29  H    3.352531   2.515220   2.201747   1.084093   2.784208
    30  H    4.601228   4.212515   2.170092   1.090001   2.798264
    31  H    4.899939   3.990461   2.176191   1.090183   3.408513
    32  H    4.981509   6.604960   4.748716   6.177240   4.073069
    33  H    6.609806   8.840306   7.538241   8.729566   6.263840
    34  H    5.524188   7.671164   6.437911   7.350323   5.042995
                   16         17         18         19         20
    16  C    0.000000
    17  C    1.406542   0.000000
    18  Cl   2.716404   1.724955   0.000000
    19  C    2.436259   1.406223   2.716214   0.000000
    20  C    2.811740   2.435354   4.023163   1.407152   0.000000
    21  H    3.919040   4.664199   6.371192   4.379363   3.192154
    22  H    4.883400   6.283607   7.269806   7.113664   6.786845
    23  H    6.087934   7.439076   8.503101   8.134273   7.660392
    24  H    4.562365   5.856516   6.476702   6.922704   6.931098
    25  H    3.982337   5.095475   6.034417   5.824614   5.635626
    26  H    5.700276   6.824054   7.693674   7.531607   7.264830
    27  H    5.349048   6.135410   7.566613   6.088250   5.237796
    28  H    5.006250   6.285566   7.623489   6.720710   6.029570
    29  H    6.240979   7.468825   8.913934   7.726466   6.837112
    30  H    6.555817   7.740660   9.268721   7.877369   6.871431
    31  H    6.840232   8.167929   9.512280   8.581810   7.785716
    32  H    1.080321   2.148017   2.843976   3.407158   3.891919
    33  H    3.414584   2.159419   2.863549   1.080097   2.161135
    34  H    3.892207   3.412043   4.873005   2.156946   1.080476
                   21         22         23         24         25
    21  H    0.000000
    22  H    4.990693   0.000000
    23  H    5.525282   2.571760   0.000000
    24  H    5.910080   2.399615   2.788930   0.000000
    25  H    4.701860   3.800418   3.096768   2.528796   0.000000
    26  H    5.914188   4.285621   2.524650   2.958647   1.732034
    27  H    3.534764   5.695175   4.586876   5.593055   3.367641
    28  H    3.613364   2.227867   3.716911   4.363387   4.783504
    29  H    3.968257   3.695126   2.643215   4.825595   4.137816
    30  H    3.764653   3.990533   3.929108   5.770163   5.434517
    31  H    4.940211   3.066845   2.671012   4.817859   5.037965
    32  H    4.656024   4.437373   5.759667   3.830091   3.748226
    33  H    5.319617   8.174135   9.187228   7.904452   6.774085
    34  H    3.527482   7.671271   8.440859   7.920511   6.488300
                   26         27         28         29         30
    26  H    0.000000
    27  H    3.836864   0.000000
    28  H    5.488483   5.342329   0.000000
    29  H    4.100551   3.481215   3.058119   0.000000
    30  H    5.692406   4.647550   2.417105   1.746564   0.000000
    31  H    4.932434   5.170707   2.501574   1.756735   1.756958
    32  H    5.389318   5.780598   5.012906   6.356584   6.769344
    33  H    8.469630   6.943098   7.776163   8.765350   8.903320
    34  H    8.050512   5.587692   6.704846   7.349217   7.288447
                   31         32         33         34
    31  H    0.000000
    32  H    6.779276   0.000000
    33  H    9.651738   4.296464   0.000000
    34  H    8.379121   4.972350   2.483346   0.000000
 Stoichiometry    C13H14ClNO5
 Framework group  C1[X(C13H14ClNO5)]
 Deg. of freedom    96
 Full point group                 C1      NOp   1
 Largest Abelian subgroup         C1      NOp   1
 Largest concise Abelian subgroup C1      NOp   1
                         Standard orientation:                         
 ---------------------------------------------------------------------
 Center     Atomic      Atomic             Coordinates (Angstroms)
 Number     Number       Type             X           Y           Z
 ---------------------------------------------------------------------
      1          8           0       -0.934543   -2.825469   -0.257105
      2          6           0       -1.753730   -1.734966   -0.154434
      3          6           0       -1.311834   -0.411078   -0.431647
      4          6           0        0.086186   -0.116197   -0.848178
      5          7           0        0.543216    1.059351   -1.007612
      6          6           0        1.950713    0.954028   -1.291914
      7          6           0        2.764347    1.527580   -0.087792
      8          8           0        2.584736    2.926622   -0.211506
      9          6           0        2.302496    1.192857    1.360317
     10          6           0        2.592961   -0.228555    1.840236
     11          8           0        1.458561   -0.940287    2.072227
     12          8           0        3.725614   -0.660359    2.026706
     13          6           0        2.121459   -0.514004   -1.714525
     14          6           0        3.458903   -1.220798   -1.453402
     15          8           0        1.003091   -1.105725   -1.091829
     16          6           0       -2.225353    0.660706   -0.295644
     17          6           0       -3.552658    0.425314    0.105866
     18         17           0       -4.651713    1.745097    0.266246
     19          6           0       -3.983809   -0.885377    0.377271
     20          6           0       -3.085487   -1.960630    0.247171
     21          1           0       -0.063551   -2.597417   -0.560450
     22          1           0        2.193294    1.550819   -2.174702
     23          1           0        3.827220    1.309394   -0.203421
     24          1           0        1.658250    3.053476   -0.381965
     25          1           0        1.245558    1.419380    1.503300
     26          1           0        2.830959    1.849023    2.052709
     27          1           0        1.684064   -1.795378    2.405546
     28          1           0        1.935956   -0.575040   -2.789433
     29          1           0        3.691053   -1.323027   -0.399403
     30          1           0        3.445003   -2.226357   -1.873831
     31          1           0        4.280948   -0.681852   -1.924866
     32          1           0       -1.913276    1.674959   -0.498112
     33          1           0       -5.003028   -1.065653    0.685982
     34          1           0       -3.420689   -2.965959    0.457846
 ---------------------------------------------------------------------
 Rotational constants (GHZ):      0.4956853      0.1876901      0.1693384
 Standard basis: 6-31+G(d,p) (6D, 7F)
 There are   454 symmetry adapted basis functions of A   symmetry.
 Integral buffers will be    131072 words long.
 Raffenetti 2 integral format.
 Two-electron integral symmetry is turned on.
   454 basis functions,   762 primitive gaussians,   454 cartesian basis functions
    78 alpha electrons       78 beta electrons
       nuclear repulsion energy      1740.7949517169 Hartrees.
 NAtoms=   34 NActive=   34 NUniq=   34 SFac= 1.00D+00 NAtFMM=   50 NAOKFM=F Big=F
 Using the following non-standard input for PCM:
 radii=UA0
 --- end of non-standard input.
 ------------------------------------------------------------------------------
 United Atom Topological Model (UA0  parameters set).
  Nord Group  Hybr  Charge Alpha Radius          Bonded to
    1   OH    *     0.00   1.10  1.850   C2   [s]
    2   C     *     0.00   1.10  1.925   O1   [s]  C3   [s]  C20  [s]
    3   C     *     0.00   1.10  1.925   C2   [s]  C4   [s]  C16  [s]
    4   C     *     0.00   1.10  1.925   C3   [s]  N5   [d]  O15  [s]
    5   N     *     0.00   1.10  1.830   C4   [d]  C6   [s]
    6   CH    *     0.00   1.10  2.125   N5   [s]  C7   [s]  C13  [s]
    7   CH    *     0.00   1.10  2.125   C6   [s]  O8   [s]  C9   [s]
    8   OH    *     0.00   1.10  1.850   C7   [s]
    9   CH2   *     0.00   1.10  2.325   C7   [s]  C10  [s]
   10   C     *     0.00   1.10  1.925   C9   [s]  O11  [s]  O12  [d]
   11   OH    *     0.00   1.10  1.850   C10  [s]
   12   O     *     0.00   1.10  1.750   C10  [d]
   13   CH    *     0.00   1.10  2.125   C6   [s]  C14  [s]  O15  [s]
   14   CH3   *     0.00   1.10  2.525   C13  [s]
   15   O     *     0.00   1.10  1.750   C4   [s]  C13  [s]
   16   CH    *     0.00   1.10  2.125   C3   [s]  C17  [s]
   17   C     *     0.00   1.10  1.925   C16  [s] Cl18  [s]  C19  [s]
   18  Cl     *     0.00   1.10  1.973   C17  [s]
   19   CH    *     0.00   1.10  2.125   C17  [s]  C20  [s]
   20   CH    *     0.00   1.10  2.125   C2   [s]  C19  [s]
 ------------------------------------------------------------------------------
 Polarizable Continuum Model (PCM)
 =================================
 Model                : PCM.
 Atomic radii         : UA0 (Simple United Atom Topological Model).
 Polarization charges : Total charges.
 Charge compensation  : None.
 Solution method      : Matrix inversion.
 Cavity type          : Scaled VdW (van der Waals Surface) (Alpha=1.100).
 Cavity algorithm     : GePol (No added spheres)
                        Default sphere list used, NSphG=   20.
                        Lebedev-Laikov grids with approx.  5.0 points / Ang**2.
                        Smoothing algorithm: Karplus/York (Gamma=1.0000).
                        Polarization charges: spherical gaussians, with
                                              point-specific exponents (IZeta= 3).
                        Self-potential: point-specific (ISelfS= 7).
                        Self-field    : sphere-specific E.n sum rule (ISelfD= 2).
 1st derivatives      : Analytical E(r).r(x)/FMM algorithm (CHGder, D1EAlg=3).
                        Cavity 1st derivative terms included.
 Solvent              : Methanol, Eps=  32.613000 Eps(inf)=   1.765709
 ------------------------------------------------------------------------------
 Spheres list:
 ISph  on   Nord    Re0     Alpha      Xe            Ye            Ze
    1   O      1    1.850   1.100     -0.934543     -2.825469     -0.257105
    2   C      2    1.925   1.100     -1.753730     -1.734966     -0.154434
    3   C      3    1.925   1.100     -1.311834     -0.411078     -0.431647
    4   C      4    1.925   1.100      0.086186     -0.116197     -0.848178
    5   N      5    1.830   1.100      0.543216      1.059351     -1.007612
    6   C      6    2.125   1.100      1.950713      0.954028     -1.291914
    7   C      7    2.125   1.100      2.764347      1.527580     -0.087792
    8   O      8    1.850   1.100      2.584736      2.926622     -0.211506
    9   C      9    2.325   1.100      2.302496      1.192857      1.360317
   10   C     10    1.925   1.100      2.592961     -0.228555      1.840236
   11   O     11    1.850   1.100      1.458561     -0.940287      2.072227
   12   O     12    1.750   1.100      3.725614     -0.660359      2.026706
   13   C     13    2.125   1.100      2.121459     -0.514004     -1.714525
   14   C     14    2.525   1.100      3.458903     -1.220798     -1.453402
   15   O     15    1.750   1.100      1.003091     -1.105725     -1.091829
   16   C     16    2.125   1.100     -2.225353      0.660706     -0.295644
   17   C     17    1.925   1.100     -3.552658      0.425314      0.105866
   18  Cl     18    1.973   1.100     -4.651713      1.745097      0.266246
   19   C     19    2.125   1.100     -3.983809     -0.885377      0.377271
   20   C     20    2.125   1.100     -3.085487     -1.960630      0.247171
 ------------------------------------------------------------------------------
 One-electron integrals computed using PRISM.
 NBasis=   454 RedAO= T  NBF=   454
 NBsUse=   453 1.00D-06 NBFU=   453
 Harris functional with IExCor= 1009 diagonalized for initial guess.
 ExpMin= 4.38D-02 ExpMax= 2.52D+04 ExpMxC= 3.78D+03 IAcc=3 IRadAn=         5 AccDes= 0.00D+00
 HarFok:  IExCor= 1009 AccDes= 0.00D+00 IRadAn=         5 IDoV= 1
 ScaDFX=  1.000000  1.000000  1.000000  1.000000
 FoFCou: FMM=F IPFlag=           0 FMFlag=      100000 FMFlg1=           0
         NFxFlg=           0 DoJE=T BraDBF=F KetDBF=T FulRan=T
         Omega=  0.000000  0.000000  1.000000  0.000000  0.000000 ICntrl=     500 IOpCl=  0
         NMat0=    1 NMatS0=    1 NMatT0=    0 NMatD0=    1 NMtDS0=    0 NMtDT0=    0
         I1Cent=           4 NGrid=           0.
 Petite list used in FoFCou.
 Initial guess orbital symmetries:
       Occupied  (A) (A) (A) (A) (A) (A) (A) (A) (A) (A) (A) (A)
                 (A) (A) (A) (A) (A) (A) (A) (A) (A) (A) (A) (A)
                 (A) (A) (A) (A) (A) (A) (A) (A) (A) (A) (A) (A)
                 (A) (A) (A) (A) (A) (A) (A) (A) (A) (A) (A) (A)
                 (A) (A) (A) (A) (A) (A) (A) (A) (A) (A) (A) (A)
                 (A) (A) (A) (A) (A) (A) (A) (A) (A) (A) (A) (A)
                 (A) (A) (A) (A) (A) (A)
       Virtual   (A) (A) (A) (A) (A) (A) (A) (A) (A) (A) (A) (A)
                 (A) (A) (A) (A) (A) (A) (A) (A) (A) (A) (A) (A)
                 (A) (A) (A) (A) (A) (A) (A) (A) (A) (A) (A) (A)
                 (A) (A) (A) (A) (A) (A) (A) (A) (A) (A) (A) (A)
                 (A) (A) (A) (A) (A) (A) (A) (A) (A) (A) (A) (A)
                 (A) (A) (A) (A) (A) (A) (A) (A) (A) (A) (A) (A)
                 (A) (A) (A) (A) (A) (A) (A) (A) (A) (A) (A) (A)
                 (A) (A) (A) (A) (A) (A) (A) (A) (A) (A) (A) (A)
                 (A) (A) (A) (A) (A) (A) (A) (A) (A) (A) (A) (A)
                 (A) (A) (A) (A) (A) (A) (A) (A) (A) (A) (A) (A)
                 (A) (A) (A) (A) (A) (A) (A) (A) (A) (A) (A) (A)
                 (A) (A) (A) (A) (A) (A) (A) (A) (A) (A) (A) (A)
                 (A) (A) (A) (A) (A) (A) (A) (A) (A) (A) (A) (A)
                 (A) (A) (A) (A) (A) (A) (A) (A) (A) (A) (A) (A)
                 (A) (A) (A) (A) (A) (A) (A) (A) (A) (A) (A) (A)
                 (A) (A) (A) (A) (A) (A) (A) (A) (A) (A) (A) (A)
                 (A) (A) (A) (A) (A) (A) (A) (A) (A) (A) (A) (A)
                 (A) (A) (A) (A) (A) (A) (A) (A) (A) (A) (A) (A)
                 (A) (A) (A) (A) (A) (A) (A) (A) (A) (A) (A) (A)
                 (A) (A) (A) (A) (A) (A) (A) (A) (A) (A) (A) (A)
                 (A) (A) (A) (A) (A) (A) (A) (A) (A) (A) (A) (A)
                 (A) (A) (A) (A) (A) (A) (A) (A) (A) (A) (A) (A)
                 (A) (A) (A) (A) (A) (A) (A) (A) (A) (A) (A) (A)
                 (A) (A) (A) (A) (A) (A) (A) (A) (A) (A) (A) (A)
                 (A) (A) (A) (A) (A) (A) (A) (A) (A) (A) (A) (A)
                 (A) (A) (A) (A) (A) (A) (A) (A) (A) (A) (A) (A)
                 (A) (A) (A) (A) (A) (A) (A) (A) (A) (A) (A) (A)
                 (A) (A) (A) (A) (A) (A) (A) (A) (A) (A) (A) (A)
                 (A) (A) (A) (A) (A) (A) (A) (A) (A) (A) (A) (A)
                 (A) (A) (A) (A) (A) (A) (A) (A) (A) (A) (A) (A)
                 (A) (A) (A) (A) (A) (A) (A) (A) (A) (A) (A) (A)
                 (A) (A) (A)
 The electronic state of the initial guess is 1-A.
 Requested convergence on RMS density matrix=1.00D-08 within 128 cycles.
 Requested convergence on MAX density matrix=1.00D-06.
 Requested convergence on             energy=1.00D-06.
 No special actions if energy rises.
 Error on total polarization charges =  0.01485
 SCF Done:  E(RM062X) =  -1394.55040969     A.U. after   16 cycles
             Convg  =    0.4538D-08             -V/T =  2.0067

 **********************************************************************

            Population analysis using the SCF density.

 **********************************************************************

 Orbital symmetries:
       Occupied  (A) (A) (A) (A) (A) (A) (A) (A) (A) (A) (A) (A)
                 (A) (A) (A) (A) (A) (A) (A) (A) (A) (A) (A) (A)
                 (A) (A) (A) (A) (A) (A) (A) (A) (A) (A) (A) (A)
                 (A) (A) (A) (A) (A) (A) (A) (A) (A) (A) (A) (A)
                 (A) (A) (A) (A) (A) (A) (A) (A) (A) (A) (A) (A)
                 (A) (A) (A) (A) (A) (A) (A) (A) (A) (A) (A) (A)
                 (A) (A) (A) (A) (A) (A)
       Virtual   (A) (A) (A) (A) (A) (A) (A) (A) (A) (A) (A) (A)
                 (A) (A) (A) (A) (A) (A) (A) (A) (A) (A) (A) (A)
                 (A) (A) (A) (A) (A) (A) (A) (A) (A) (A) (A) (A)
                 (A) (A) (A) (A) (A) (A) (A) (A) (A) (A) (A) (A)
                 (A) (A) (A) (A) (A) (A) (A) (A) (A) (A) (A) (A)
                 (A) (A) (A) (A) (A) (A) (A) (A) (A) (A) (A) (A)
                 (A) (A) (A) (A) (A) (A) (A) (A) (A) (A) (A) (A)
                 (A) (A) (A) (A) (A) (A) (A) (A) (A) (A) (A) (A)
                 (A) (A) (A) (A) (A) (A) (A) (A) (A) (A) (A) (A)
                 (A) (A) (A) (A) (A) (A) (A) (A) (A) (A) (A) (A)
                 (A) (A) (A) (A) (A) (A) (A) (A) (A) (A) (A) (A)
                 (A) (A) (A) (A) (A) (A) (A) (A) (A) (A) (A) (A)
                 (A) (A) (A) (A) (A) (A) (A) (A) (A) (A) (A) (A)
                 (A) (A) (A) (A) (A) (A) (A) (A) (A) (A) (A) (A)
                 (A) (A) (A) (A) (A) (A) (A) (A) (A) (A) (A) (A)
                 (A) (A) (A) (A) (A) (A) (A) (A) (A) (A) (A) (A)
                 (A) (A) (A) (A) (A) (A) (A) (A) (A) (A) (A) (A)
                 (A) (A) (A) (A) (A) (A) (A) (A) (A) (A) (A) (A)
                 (A) (A) (A) (A) (A) (A) (A) (A) (A) (A) (A) (A)
                 (A) (A) (A) (A) (A) (A) (A) (A) (A) (A) (A) (A)
                 (A) (A) (A) (A) (A) (A) (A) (A) (A) (A) (A) (A)
                 (A) (A) (A) (A) (A) (A) (A) (A) (A) (A) (A) (A)
                 (A) (A) (A) (A) (A) (A) (A) (A) (A) (A) (A) (A)
                 (A) (A) (A) (A) (A) (A) (A) (A) (A) (A) (A) (A)
                 (A) (A) (A) (A) (A) (A) (A) (A) (A) (A) (A) (A)
                 (A) (A) (A) (A) (A) (A) (A) (A) (A) (A) (A) (A)
                 (A) (A) (A) (A) (A) (A) (A) (A) (A) (A) (A) (A)
                 (A) (A) (A) (A) (A) (A) (A) (A) (A) (A) (A) (A)
                 (A) (A) (A) (A) (A) (A) (A) (A) (A) (A) (A) (A)
                 (A) (A) (A) (A) (A) (A) (A) (A) (A) (A) (A) (A)
                 (A) (A) (A) (A) (A) (A) (A) (A) (A) (A) (A) (A)
                 (A) (A) (A)
 The electronic state is 1-A.
 Alpha  occ. eigenvalues -- -102.68326 -19.70629 -19.70255 -19.68473 -19.65802
 Alpha  occ. eigenvalues --  -19.65138 -14.76629 -10.70972 -10.67526 -10.64862
 Alpha  occ. eigenvalues --  -10.62740 -10.62458 -10.62382 -10.59966 -10.59393
 Alpha  occ. eigenvalues --  -10.58880 -10.58615 -10.57581 -10.57104 -10.55397
 Alpha  occ. eigenvalues --   -9.83006  -7.55409  -7.54747  -7.54737  -1.25010
 Alpha  occ. eigenvalues --   -1.24227  -1.19779  -1.16666  -1.15188  -1.04256
 Alpha  occ. eigenvalues --   -1.00852  -0.95360  -0.91953  -0.88127  -0.87071
 Alpha  occ. eigenvalues --   -0.83706  -0.81017  -0.77541  -0.73891  -0.71725
 Alpha  occ. eigenvalues --   -0.70448  -0.68741  -0.67489  -0.64196  -0.61570
 Alpha  occ. eigenvalues --   -0.60170  -0.59785  -0.58315  -0.57952  -0.56462
 Alpha  occ. eigenvalues --   -0.54919  -0.54082  -0.53678  -0.53345  -0.52013
 Alpha  occ. eigenvalues --   -0.51033  -0.50526  -0.49062  -0.48560  -0.47941
 Alpha  occ. eigenvalues --   -0.47376  -0.46995  -0.46318  -0.46079  -0.45706
 Alpha  occ. eigenvalues --   -0.43946  -0.43577  -0.42128  -0.40632  -0.40234
 Alpha  occ. eigenvalues --   -0.39134  -0.38885  -0.38183  -0.36223  -0.35818
 Alpha  occ. eigenvalues --   -0.34402  -0.31360  -0.28740
 Alpha virt. eigenvalues --   -0.03545   0.00622   0.00639   0.01773   0.01918
 Alpha virt. eigenvalues --    0.02359   0.02556   0.03302   0.03421   0.04543
 Alpha virt. eigenvalues --    0.04667   0.04812   0.05193   0.05678   0.06131
 Alpha virt. eigenvalues --    0.06383   0.07280   0.07555   0.07980   0.08443
 Alpha virt. eigenvalues --    0.08713   0.08982   0.09242   0.10143   0.10340
 Alpha virt. eigenvalues --    0.10658   0.11346   0.11508   0.11960   0.12695
 Alpha virt. eigenvalues --    0.12800   0.13651   0.14128   0.14350   0.14591
 Alpha virt. eigenvalues --    0.15038   0.15361   0.15790   0.15860   0.16417
 Alpha virt. eigenvalues --    0.16523   0.16962   0.17682   0.18207   0.18460
 Alpha virt. eigenvalues --    0.18847   0.19151   0.19442   0.20112   0.20317
 Alpha virt. eigenvalues --    0.20460   0.20813   0.21354   0.21790   0.22025
 Alpha virt. eigenvalues --    0.22408   0.22758   0.23102   0.23439   0.23721
 Alpha virt. eigenvalues --    0.24064   0.24418   0.25061   0.25339   0.25767
 Alpha virt. eigenvalues --    0.26103   0.26324   0.26782   0.27132   0.27688
 Alpha virt. eigenvalues --    0.27773   0.28449   0.28948   0.29173   0.29440
 Alpha virt. eigenvalues --    0.29861   0.30170   0.30807   0.30856   0.31293
 Alpha virt. eigenvalues --    0.31961   0.32301   0.33090   0.33359   0.33569
 Alpha virt. eigenvalues --    0.34500   0.34712   0.34817   0.35458   0.36014
 Alpha virt. eigenvalues --    0.36141   0.36820   0.37388   0.37925   0.38380
 Alpha virt. eigenvalues --    0.39312   0.39425   0.39767   0.40674   0.40948
 Alpha virt. eigenvalues --    0.41951   0.42657   0.42808   0.43717   0.44679
 Alpha virt. eigenvalues --    0.44956   0.45136   0.46406   0.47464   0.48825
 Alpha virt. eigenvalues --    0.49651   0.50360   0.51849   0.54674   0.54771
 Alpha virt. eigenvalues --    0.56267   0.58317   0.60329   0.62451   0.64522
 Alpha virt. eigenvalues --    0.67120   0.67896   0.68930   0.70703   0.71455
 Alpha virt. eigenvalues --    0.71920   0.72673   0.72751   0.73831   0.74683
 Alpha virt. eigenvalues --    0.74895   0.76054   0.78240   0.78811   0.79645
 Alpha virt. eigenvalues --    0.80457   0.80916   0.81636   0.82013   0.82204
 Alpha virt. eigenvalues --    0.83818   0.84993   0.85534   0.85757   0.86285
 Alpha virt. eigenvalues --    0.88426   0.89320   0.90271   0.91422   0.91564
 Alpha virt. eigenvalues --    0.92946   0.94176   0.95649   0.96222   0.97263
 Alpha virt. eigenvalues --    0.98094   0.98942   0.99353   1.01030   1.01224
 Alpha virt. eigenvalues --    1.03562   1.04677   1.05939   1.06430   1.07528
 Alpha virt. eigenvalues --    1.08008   1.10214   1.10916   1.11509   1.12197
 Alpha virt. eigenvalues --    1.13302   1.13880   1.15796   1.16241   1.17283
 Alpha virt. eigenvalues --    1.19107   1.19258   1.20563   1.20716   1.22258
 Alpha virt. eigenvalues --    1.22612   1.23114   1.25391   1.25824   1.26879
 Alpha virt. eigenvalues --    1.27363   1.29038   1.29525   1.30091   1.32368
 Alpha virt. eigenvalues --    1.32931   1.33883   1.34676   1.35611   1.36511
 Alpha virt. eigenvalues --    1.36939   1.37461   1.38605   1.39725   1.39991
 Alpha virt. eigenvalues --    1.40434   1.41018   1.41637   1.43564   1.44080
 Alpha virt. eigenvalues --    1.44460   1.44576   1.45447   1.47014   1.47789
 Alpha virt. eigenvalues --    1.48846   1.49983   1.50365   1.52246   1.53024
 Alpha virt. eigenvalues --    1.54692   1.56334   1.57582   1.57664   1.59272
 Alpha virt. eigenvalues --    1.61270   1.62554   1.63697   1.66238   1.68337
 Alpha virt. eigenvalues --    1.69100   1.70757   1.73023   1.76062   1.77425
 Alpha virt. eigenvalues --    1.78049   1.78291   1.79145   1.81058   1.81270
 Alpha virt. eigenvalues --    1.83180   1.83920   1.84861   1.86151   1.87992
 Alpha virt. eigenvalues --    1.88558   1.89464   1.91599   1.92024   1.92287
 Alpha virt. eigenvalues --    1.94986   1.95861   1.96582   1.97878   1.98511
 Alpha virt. eigenvalues --    1.99756   2.01268   2.03270   2.03836   2.04114
 Alpha virt. eigenvalues --    2.05818   2.06590   2.07520   2.08898   2.09596
 Alpha virt. eigenvalues --    2.10278   2.11255   2.12070   2.14858   2.16280
 Alpha virt. eigenvalues --    2.17745   2.18582   2.19025   2.21542   2.22023
 Alpha virt. eigenvalues --    2.23457   2.24810   2.25899   2.28547   2.28827
 Alpha virt. eigenvalues --    2.29824   2.33176   2.35211   2.35985   2.37206
 Alpha virt. eigenvalues --    2.39237   2.39937   2.41712   2.42183   2.43839
 Alpha virt. eigenvalues --    2.44448   2.45470   2.46616   2.47904   2.49957
 Alpha virt. eigenvalues --    2.51008   2.51559   2.51959   2.53598   2.55297
 Alpha virt. eigenvalues --    2.56489   2.58598   2.59122   2.59905   2.60508
 Alpha virt. eigenvalues --    2.61900   2.62390   2.62932   2.63759   2.66839
 Alpha virt. eigenvalues --    2.68833   2.69290   2.70208   2.70576   2.72048
 Alpha virt. eigenvalues --    2.73023   2.74270   2.74969   2.75490   2.75850
 Alpha virt. eigenvalues --    2.76750   2.79200   2.80122   2.82056   2.82971
 Alpha virt. eigenvalues --    2.83510   2.85213   2.86518   2.90377   2.90949
 Alpha virt. eigenvalues --    2.94071   2.96274   2.98601   3.01797   3.02282
 Alpha virt. eigenvalues --    3.04755   3.05630   3.06975   3.09234   3.13570
 Alpha virt. eigenvalues --    3.14255   3.14853   3.19207   3.24794   3.27006
 Alpha virt. eigenvalues --    3.27696   3.32606   3.37773   3.39285   3.40354
 Alpha virt. eigenvalues --    3.44108   3.45604   3.47063   3.48148   3.53122
 Alpha virt. eigenvalues --    3.53965   3.59254   3.64631   3.65745   3.77014
 Alpha virt. eigenvalues --    4.27974   4.30748   4.33588   4.35855   4.36824
 Alpha virt. eigenvalues --    4.39109   4.40912   4.46251   4.47561   4.50820
 Alpha virt. eigenvalues --    4.52823   4.57306   4.60691   4.63348   4.68760
 Alpha virt. eigenvalues --    4.76974   4.80240   4.86973   4.90694   4.97087
          Condensed to atoms (all electrons):
              1          2          3          4          5          6
     1  O    8.397019   0.427330   0.045211  -0.027905   0.000340  -0.002040
     2  C    0.427330  18.805283  -4.879354   1.322361  -0.195530   0.325018
     3  C    0.045211  -4.879354  14.382286  -1.128385  -0.484706  -0.446419
     4  C   -0.027905   1.322361  -1.128385  10.475375  -0.063558   0.173019
     5  N    0.000340  -0.195530  -0.484706  -0.063558   7.435608  -0.145879
     6  C   -0.002040   0.325018  -0.446419   0.173019  -0.145879   9.685554
     7  C   -0.001614  -0.098130   0.256047   0.405437  -0.258535  -1.404430
     8  O    0.000037  -0.001186   0.005027   0.003154   0.005927  -0.168531
     9  C   -0.001566   0.092303  -0.195215  -0.170379   0.098836   0.451976
    10  C   -0.001653  -0.127640   0.045785  -0.139042   0.000076   0.398736
    11  O    0.000653  -0.015023  -0.077480  -0.052740   0.041098   0.000084
    12  O    0.000180  -0.002266   0.009864  -0.003837   0.001195  -0.051234
    13  C   -0.002620   0.105783  -0.077726  -1.891831   0.528000  -2.539618
    14  C    0.001354   0.145490  -0.111491  -0.221249  -0.018617   0.087904
    15  O    0.020806  -0.194501  -0.166736   0.344033  -0.123754  -0.084371
    16  C    0.103379  -6.177018   1.273124  -4.064663   0.229328  -0.499466
    17  C   -0.010976  -0.046381  -1.470016   0.913408   0.166175   0.070669
    18  Cl  -0.000472   0.011784  -0.009246   0.009450  -0.002792  -0.004362
    19  C    0.049150   0.851326  -0.018027   0.143409   0.010423   0.077085
    20  C   -0.629726  -4.103187  -0.817057  -0.268528   0.058257  -0.170283
    21  H    0.202741   0.106367  -0.201863   0.057120   0.002658  -0.003436
    22  H    0.000000  -0.000383   0.017046   0.053312  -0.072765   0.426524
    23  H    0.000004  -0.000905  -0.001884  -0.044679   0.017481  -0.041927
    24  H    0.000000   0.000170   0.000514  -0.005319   0.034444  -0.061067
    25  H    0.000042  -0.017026  -0.006486  -0.035209   0.033712  -0.053181
    26  H    0.000002   0.000748  -0.002467  -0.006602   0.001308   0.043721
    27  H   -0.000328   0.010299  -0.011027   0.004606  -0.000836   0.008391
    28  H    0.000040   0.000462  -0.009278   0.082995  -0.000519   0.026542
    29  H    0.000002  -0.002019   0.009885   0.044839  -0.008355   0.003796
    30  H   -0.000101  -0.000139  -0.003701  -0.005450   0.001156   0.002750
    31  H    0.000000   0.001543  -0.003643  -0.013604  -0.000365   0.020127
    32  H   -0.000440   0.071972   0.054726   0.083249  -0.000709   0.001421
    33  H   -0.000411  -0.057229   0.005301  -0.009933   0.000071   0.000002
    34  H   -0.003254   0.027993   0.002624   0.001100   0.000034  -0.000083
              7          8          9         10         11         12
     1  O   -0.001614   0.000037  -0.001566  -0.001653   0.000653   0.000180
     2  C   -0.098130  -0.001186   0.092303  -0.127640  -0.015023  -0.002266
     3  C    0.256047   0.005027  -0.195215   0.045785  -0.077480   0.009864
     4  C    0.405437   0.003154  -0.170379  -0.139042  -0.052740  -0.003837
     5  N   -0.258535   0.005927   0.098836   0.000076   0.041098   0.001195
     6  C   -1.404430  -0.168531   0.451976   0.398736   0.000084  -0.051234
     7  C    7.988546   0.360927  -0.549930  -0.635246  -0.003654   0.073256
     8  O    0.360927   8.230800  -0.167673   0.009198  -0.001195  -0.001012
     9  C   -0.549930  -0.167673   6.735739  -0.307231  -0.219554  -0.217241
    10  C   -0.635246   0.009198  -0.307231   5.855480   0.314883   0.554058
    11  O   -0.003654  -0.001195  -0.219554   0.314883   8.242200  -0.145384
    12  O    0.073256  -0.001012  -0.217241   0.554058  -0.145384   8.188561
    13  C   -0.466936   0.070599  -0.099918   0.021698   0.076560   0.041862
    14  C   -0.229284  -0.001658   0.032090  -0.109198   0.002457  -0.028252
    15  O    0.082397  -0.003152  -0.006370  -0.010764   0.008723  -0.004030
    16  C    0.415685  -0.020648  -0.139321   0.038539  -0.025877  -0.000829
    17  C   -0.024851  -0.001687   0.048405  -0.033284   0.009998   0.000438
    18  Cl   0.001383   0.000004  -0.000777  -0.000659  -0.000019   0.000002
    19  C    0.005214  -0.000436   0.003814   0.004379   0.002261  -0.000081
    20  C   -0.053521   0.000289  -0.020697   0.045528   0.007086  -0.001530
    21  H    0.000383  -0.000002   0.000536   0.000216   0.000556  -0.000038
    22  H   -0.025693  -0.006930   0.007531   0.003642  -0.000229  -0.000084
    23  H    0.366203  -0.043969  -0.028661  -0.012600   0.001161   0.005612
    24  H    0.023005   0.265854  -0.030753  -0.002383   0.000136   0.000141
    25  H   -0.001156   0.000493   0.411678  -0.071254   0.010093   0.008580
    26  H   -0.069636  -0.004631   0.379527  -0.004152   0.004310  -0.008439
    27  H   -0.009446   0.000059   0.037665  -0.014818   0.252175   0.001658
    28  H    0.042020  -0.000747  -0.000743  -0.002643  -0.000165  -0.000068
    29  H    0.051279  -0.000523  -0.014425   0.014142  -0.004784  -0.002107
    30  H   -0.007287   0.000040  -0.000392   0.000386   0.000079   0.000454
    31  H   -0.019688  -0.000044  -0.000073  -0.002276   0.000038   0.000621
    32  H   -0.003013  -0.000038   0.000570   0.000180  -0.000004   0.000000
    33  H   -0.000003   0.000000   0.000006  -0.000013   0.000000   0.000000
    34  H    0.000001   0.000000  -0.000011   0.000028   0.000003   0.000000
             13         14         15         16         17         18
     1  O   -0.002620   0.001354   0.020806   0.103379  -0.010976  -0.000472
     2  C    0.105783   0.145490  -0.194501  -6.177018  -0.046381   0.011784
     3  C   -0.077726  -0.111491  -0.166736   1.273124  -1.470016  -0.009246
     4  C   -1.891831  -0.221249   0.344033  -4.064663   0.913408   0.009450
     5  N    0.528000  -0.018617  -0.123754   0.229328   0.166175  -0.002792
     6  C   -2.539618   0.087904  -0.084371  -0.499466   0.070669  -0.004362
     7  C   -0.466936  -0.229284   0.082397   0.415685  -0.024851   0.001383
     8  O    0.070599  -0.001658  -0.003152  -0.020648  -0.001687   0.000004
     9  C   -0.099918   0.032090  -0.006370  -0.139321   0.048405  -0.000777
    10  C    0.021698  -0.109198  -0.010764   0.038539  -0.033284  -0.000659
    11  O    0.076560   0.002457   0.008723  -0.025877   0.009998  -0.000019
    12  O    0.041862  -0.028252  -0.004030  -0.000829   0.000438   0.000002
    13  C   10.323014   0.050620  -0.167868  -0.719041   0.026842   0.001586
    14  C    0.050620   5.846079  -0.070517  -0.124416   0.003913   0.000027
    15  O   -0.167868  -0.070517   8.559816   0.061949   0.060224  -0.000321
    16  C   -0.719041  -0.124416   0.061949  24.143087  -4.606635  -0.102264
    17  C    0.026842   0.003913   0.060224  -4.606635   9.601872  -0.123514
    18  Cl   0.001586   0.000027  -0.000321  -0.102264  -0.123514  17.022005
    19  C   -0.082206  -0.002805  -0.003441  -2.627029   1.024726  -0.097206
    20  C    0.300800   0.030372   0.028789  -0.892637   0.318743   0.070315
    21  H    0.005448  -0.007156   0.030452  -0.046549   0.002809  -0.000004
    22  H   -0.104362  -0.011271   0.011193  -0.000415  -0.002370   0.000004
    23  H    0.043791   0.022243  -0.005247  -0.001778  -0.000009   0.000000
    24  H    0.039076  -0.000204  -0.000615  -0.007225  -0.000046   0.000005
    25  H    0.027369  -0.000181  -0.002281   0.017240   0.002249  -0.000041
    26  H    0.000649   0.003753   0.000192  -0.001830   0.000620   0.000001
    27  H   -0.008132   0.001807  -0.001015  -0.004293  -0.000137  -0.000001
    28  H    0.258964  -0.066269  -0.058254   0.012046   0.000545   0.000002
    29  H   -0.091402   0.359543  -0.001958   0.002045  -0.000305   0.000000
    30  H   -0.043194   0.426907  -0.007442   0.000383   0.000137   0.000000
    31  H   -0.089907   0.462247   0.007905  -0.001024   0.000012   0.000000
    32  H    0.008541   0.000143   0.000258   0.054163   0.021956  -0.001635
    33  H   -0.000107  -0.000001  -0.000001   0.150363   0.077502  -0.009056
    34  H    0.000315  -0.000020   0.000208  -0.007501   0.000157   0.000929
             19         20         21         22         23         24
     1  O    0.049150  -0.629726   0.202741   0.000000   0.000004   0.000000
     2  C    0.851326  -4.103187   0.106367  -0.000383  -0.000905   0.000170
     3  C   -0.018027  -0.817057  -0.201863   0.017046  -0.001884   0.000514
     4  C    0.143409  -0.268528   0.057120   0.053312  -0.044679  -0.005319
     5  N    0.010423   0.058257   0.002658  -0.072765   0.017481   0.034444
     6  C    0.077085  -0.170283  -0.003436   0.426524  -0.041927  -0.061067
     7  C    0.005214  -0.053521   0.000383  -0.025693   0.366203   0.023005
     8  O   -0.000436   0.000289  -0.000002  -0.006930  -0.043969   0.265854
     9  C    0.003814  -0.020697   0.000536   0.007531  -0.028661  -0.030753
    10  C    0.004379   0.045528   0.000216   0.003642  -0.012600  -0.002383
    11  O    0.002261   0.007086   0.000556  -0.000229   0.001161   0.000136
    12  O   -0.000081  -0.001530  -0.000038  -0.000084   0.005612   0.000141
    13  C   -0.082206   0.300800   0.005448  -0.104362   0.043791   0.039076
    14  C   -0.002805   0.030372  -0.007156  -0.011271   0.022243  -0.000204
    15  O   -0.003441   0.028789   0.030452   0.011193  -0.005247  -0.000615
    16  C   -2.627029  -0.892637  -0.046549  -0.000415  -0.001778  -0.007225
    17  C    1.024726   0.318743   0.002809  -0.002370  -0.000009  -0.000046
    18  Cl  -0.097206   0.070315  -0.000004   0.000004   0.000000   0.000005
    19  C    7.415739  -0.578576  -0.002205  -0.000167  -0.000032  -0.000138
    20  C   -0.578576  11.960770   0.101111   0.000503  -0.000015   0.000160
    21  H   -0.002205   0.101111   0.290042   0.000001  -0.000001   0.000000
    22  H   -0.000167   0.000503   0.000001   0.511486  -0.003296  -0.003281
    23  H   -0.000032  -0.000015  -0.000001  -0.003296   0.534406   0.005780
    24  H   -0.000138   0.000160   0.000000  -0.003281   0.005780   0.327554
    25  H   -0.000795  -0.000599  -0.000008  -0.000119   0.003594   0.001590
    26  H    0.000043  -0.000043   0.000000  -0.000060  -0.003832  -0.000475
    27  H   -0.000082   0.001433   0.000024   0.000000   0.000007   0.000000
    28  H    0.000359  -0.000806   0.000054  -0.008152  -0.000078  -0.000009
    29  H    0.000084  -0.000439   0.000019  -0.000041  -0.002321  -0.000002
    30  H   -0.000018  -0.000233  -0.000037  -0.000089   0.000092   0.000000
    31  H   -0.000006   0.000109   0.000000   0.000432  -0.000253  -0.000004
    32  H    0.037683  -0.006838  -0.000006   0.000001   0.000000   0.000025
    33  H    0.182161  -0.008752   0.000003   0.000000   0.000000   0.000000
    34  H    0.002224   0.303820   0.000033   0.000000   0.000000   0.000000
             25         26         27         28         29         30
     1  O    0.000042   0.000002  -0.000328   0.000040   0.000002  -0.000101
     2  C   -0.017026   0.000748   0.010299   0.000462  -0.002019  -0.000139
     3  C   -0.006486  -0.002467  -0.011027  -0.009278   0.009885  -0.003701
     4  C   -0.035209  -0.006602   0.004606   0.082995   0.044839  -0.005450
     5  N    0.033712   0.001308  -0.000836  -0.000519  -0.008355   0.001156
     6  C   -0.053181   0.043721   0.008391   0.026542   0.003796   0.002750
     7  C   -0.001156  -0.069636  -0.009446   0.042020   0.051279  -0.007287
     8  O    0.000493  -0.004631   0.000059  -0.000747  -0.000523   0.000040
     9  C    0.411678   0.379527   0.037665  -0.000743  -0.014425  -0.000392
    10  C   -0.071254  -0.004152  -0.014818  -0.002643   0.014142   0.000386
    11  O    0.010093   0.004310   0.252175  -0.000165  -0.004784   0.000079
    12  O    0.008580  -0.008439   0.001658  -0.000068  -0.002107   0.000454
    13  C    0.027369   0.000649  -0.008132   0.258964  -0.091402  -0.043194
    14  C   -0.000181   0.003753   0.001807  -0.066269   0.359543   0.426907
    15  O   -0.002281   0.000192  -0.001015  -0.058254  -0.001958  -0.007442
    16  C    0.017240  -0.001830  -0.004293   0.012046   0.002045   0.000383
    17  C    0.002249   0.000620  -0.000137   0.000545  -0.000305   0.000137
    18  Cl  -0.000041   0.000001  -0.000001   0.000002   0.000000   0.000000
    19  C   -0.000795   0.000043  -0.000082   0.000359   0.000084  -0.000018
    20  C   -0.000599  -0.000043   0.001433  -0.000806  -0.000439  -0.000233
    21  H   -0.000008   0.000000   0.000024   0.000054   0.000019  -0.000037
    22  H   -0.000119  -0.000060   0.000000  -0.008152  -0.000041  -0.000089
    23  H    0.003594  -0.003832   0.000007  -0.000078  -0.002321   0.000092
    24  H    0.001590  -0.000475   0.000000  -0.000009  -0.000002   0.000000
    25  H    0.498590  -0.028759  -0.000102  -0.000004  -0.000035   0.000001
    26  H   -0.028759   0.478893  -0.000258   0.000000  -0.000004   0.000000
    27  H   -0.000102  -0.000258   0.295079   0.000001   0.000071  -0.000003
    28  H   -0.000004   0.000000   0.000001   0.541177   0.004193  -0.004828
    29  H   -0.000035  -0.000004   0.000071   0.004193   0.511848  -0.026125
    30  H    0.000001   0.000000  -0.000003  -0.004828  -0.026125   0.506996
    31  H    0.000000   0.000001   0.000000  -0.001931  -0.025845  -0.022783
    32  H   -0.000030   0.000000   0.000000  -0.000001   0.000000   0.000000
    33  H    0.000000   0.000000   0.000000   0.000000   0.000000   0.000000
    34  H    0.000000   0.000000   0.000000   0.000000   0.000000   0.000000
             31         32         33         34
     1  O    0.000000  -0.000440  -0.000411  -0.003254
     2  C    0.001543   0.071972  -0.057229   0.027993
     3  C   -0.003643   0.054726   0.005301   0.002624
     4  C   -0.013604   0.083249  -0.009933   0.001100
     5  N   -0.000365  -0.000709   0.000071   0.000034
     6  C    0.020127   0.001421   0.000002  -0.000083
     7  C   -0.019688  -0.003013  -0.000003   0.000001
     8  O   -0.000044  -0.000038   0.000000   0.000000
     9  C   -0.000073   0.000570   0.000006  -0.000011
    10  C   -0.002276   0.000180  -0.000013   0.000028
    11  O    0.000038  -0.000004   0.000000   0.000003
    12  O    0.000621   0.000000   0.000000   0.000000
    13  C   -0.089907   0.008541  -0.000107   0.000315
    14  C    0.462247   0.000143  -0.000001  -0.000020
    15  O    0.007905   0.000258  -0.000001   0.000208
    16  C   -0.001024   0.054163   0.150363  -0.007501
    17  C    0.000012   0.021956   0.077502   0.000157
    18  Cl   0.000000  -0.001635  -0.009056   0.000929
    19  C   -0.000006   0.037683   0.182161   0.002224
    20  C    0.000109  -0.006838  -0.008752   0.303820
    21  H    0.000000  -0.000006   0.000003   0.000033
    22  H    0.000432   0.000001   0.000000   0.000000
    23  H   -0.000253   0.000000   0.000000   0.000000
    24  H   -0.000004   0.000025   0.000000   0.000000
    25  H    0.000000  -0.000030   0.000000   0.000000
    26  H    0.000001   0.000000   0.000000   0.000000
    27  H    0.000000   0.000000   0.000000   0.000000
    28  H   -0.001931  -0.000001   0.000000   0.000000
    29  H   -0.025845   0.000000   0.000000   0.000000
    30  H   -0.022783   0.000000   0.000000   0.000000
    31  H    0.497479   0.000000   0.000000   0.000000
    32  H    0.000000   0.464145  -0.000129   0.000008
    33  H    0.000000  -0.000129   0.467208  -0.003672
    34  H    0.000000   0.000008  -0.003672   0.471304
 Mulliken atomic charges:
              1
     1  O   -0.565185
     2  C   -0.388315
     3  C    0.014764
     4  C    0.036045
     5  N   -0.289211
     6  C   -0.126993
     7  C   -0.209730
     8  O   -0.528348
     9  C   -0.129745
    10  C    0.167901
    11  O   -0.428448
    12  O   -0.420051
    13  C    0.453351
    14  C   -0.474360
    15  O   -0.304305
    16  C   -0.430872
    17  C   -0.031185
    18  Cl   0.234872
    19  C   -0.396831
    20  C    0.325380
    21  H    0.460732
    22  H    0.208033
    23  H    0.191113
    24  H    0.413070
    25  H    0.202035
    26  H    0.217419
    27  H    0.437204
    28  H    0.185094
    29  H    0.178945
    30  H    0.182441
    31  H    0.190931
    32  H    0.213801
    33  H    0.206690
    34  H    0.203759
 Sum of Mulliken atomic charges =   0.00000
 Mulliken charges with hydrogens summed into heavy atoms:
              1
     1  O   -0.104453
     2  C   -0.388315
     3  C    0.014764
     4  C    0.036045
     5  N   -0.289211
     6  C    0.081040
     7  C   -0.018617
     8  O   -0.115278
     9  C    0.289709
    10  C    0.167901
    11  O    0.008757
    12  O   -0.420051
    13  C    0.638444
    14  C    0.077956
    15  O   -0.304305
    16  C   -0.217071
    17  C   -0.031185
    18  Cl   0.234872
    19  C   -0.190141
    20  C    0.529139
 Sum of Mulliken charges with hydrogens summed into heavy atoms =   0.00000
 Electronic spatial extent (au):  <R**2>=           6587.1365
 Charge=              0.0000 electrons
 Dipole moment (field-independent basis, Debye):
    X=             -0.1361    Y=             -2.7419    Z=             -1.6991  Tot=              3.2285
 Quadrupole moment (field-independent basis, Debye-Ang):
   XX=           -134.0564   YY=           -129.1462   ZZ=           -119.6175
   XY=             -0.5292   XZ=            -12.7783   YZ=             -0.5584
 Traceless Quadrupole moment (field-independent basis, Debye-Ang):
   XX=             -6.4497   YY=             -1.5395   ZZ=              7.9892
   XY=             -0.5292   XZ=            -12.7783   YZ=             -0.5584
 Octapole moment (field-independent basis, Debye-Ang**2):
  XXX=            -48.1773  YYY=            -24.7819  ZZZ=              1.9276  XYY=            -13.5489
  XXY=            -50.6440  XXZ=            -36.3440  XZZ=             20.7870  YZZ=             -6.2691
  YYZ=             16.0251  XYZ=             15.2780
 Hexadecapole moment (field-independent basis, Debye-Ang**3):
 XXXX=          -6096.3934 YYYY=          -1796.4290 ZZZZ=           -983.7137 XXXY=            138.2101
 XXXZ=           -271.3194 YYYX=           -154.8392 YYYZ=            -33.9244 ZZZX=            -19.1209
 ZZZY=            -18.8404 XXYY=          -1317.6392 XXZZ=          -1205.9354 YYZZ=           -424.2819
 XXYZ=             18.1330 YYXZ=              6.4752 ZZXY=             -3.4024
 N-N= 1.740794951717D+03 E-N=-6.753773892332D+03  KE= 1.385334685229D+03
 D1PCM: PCM CHGder 1st derivatives, ID1Alg=3 FixD1E=F DoIter=F DoCFld=F I1PDM=0.
 Calling FoFJK, ICntrl=      2127 FMM=F ISym2X=0 I1Cent= 0 IOpClX= 0 NMat=1 NMatS=1 NMatT=0.
 ***** Axes restored to original set *****
 -------------------------------------------------------------------
 Center     Atomic                   Forces (Hartrees/Bohr)
 Number     Number              X              Y              Z
 -------------------------------------------------------------------
      1        8          -0.020530455    0.014414230    0.023770175
      2        6           0.003826994   -0.001942768   -0.006026200
      3        6          -0.001498799   -0.008513141    0.007745522
      4        6           0.002553937    0.006165791   -0.008533472
      5        7          -0.008828370    0.018536844    0.006242351
      6        6           0.013808658   -0.016371527   -0.005189369
      7        6          -0.011236065    0.009961664    0.003830379
      8        8           0.024976814   -0.002169398   -0.012588899
      9        6          -0.001762522   -0.016932999    0.007964470
     10        6           0.005053932   -0.001888969   -0.000453582
     11        8          -0.000106752    0.028041313   -0.034776970
     12        8          -0.023328319    0.009757588    0.008394718
     13        6           0.013967161   -0.001262451   -0.021180616
     14        6          -0.007971642    0.002868183    0.009953037
     15        8          -0.013100491   -0.014165106    0.042407446
     16        6          -0.005964127   -0.005721577    0.013590050
     17        6           0.015017386   -0.023883217   -0.007090912
     18       17          -0.003419090    0.007422954    0.000117586
     19        6           0.011475542   -0.009071039   -0.011187120
     20        6          -0.000574950    0.016338505   -0.009619426
     21        1           0.012571435   -0.001960062   -0.019267278
     22        1           0.006461120    0.006703365   -0.002065412
     23        1           0.001385874   -0.001071651   -0.001652319
     24        1          -0.018910152    0.012961545    0.005575679
     25        1          -0.005940873   -0.002858290   -0.001584570
     26        1           0.003552430   -0.001187661   -0.006670859
     27        1           0.013172387   -0.028242401    0.018894160
     28        1          -0.003969947    0.000280850   -0.002961003
     29        1           0.004038172    0.004691230    0.004719095
     30        1          -0.002776230   -0.001469014   -0.000120978
     31        1          -0.002567080    0.003159395   -0.002839372
     32        1           0.002577497    0.000538218   -0.004327145
     33        1          -0.002554960    0.000564959    0.003435675
     34        1           0.000601486   -0.003695360    0.001495162
 -------------------------------------------------------------------
 Cartesian Forces:  Max     0.042407446 RMS     0.011804729

 GradGradGradGradGradGradGradGradGradGradGradGradGradGradGradGradGradGrad
 Berny optimization.
 Internal  Forces:  Max     0.036430483 RMS     0.007514588
 Search for a local minimum.
 Step number   1 out of a maximum of  192
 All quantities printed in internal units (Hartrees-Bohrs-Radians)
 Mixed Optimization -- RFO/linear search
 Second derivative matrix not updated -- first step.
 ITU=  0
     Eigenvalues ---    0.00230   0.00230   0.00302   0.00394   0.00750
     Eigenvalues ---    0.00863   0.00929   0.01481   0.01560   0.01699
     Eigenvalues ---    0.01847   0.01920   0.01946   0.01965   0.01980
     Eigenvalues ---    0.01998   0.02000   0.02004   0.02118   0.02232
     Eigenvalues ---    0.02374   0.03366   0.03530   0.03616   0.03882
     Eigenvalues ---    0.04188   0.04996   0.05044   0.05190   0.05225
     Eigenvalues ---    0.05545   0.05792   0.08113   0.08479   0.08573
     Eigenvalues ---    0.09903   0.13203   0.13814   0.16000   0.16000
     Eigenvalues ---    0.16000   0.16000   0.16000   0.16000   0.16000
     Eigenvalues ---    0.16000   0.16481   0.17091   0.17290   0.18800
     Eigenvalues ---    0.20153   0.21949   0.22438   0.23511   0.23672
     Eigenvalues ---    0.24601   0.24992   0.24999   0.25000   0.25000
     Eigenvalues ---    0.25000   0.26629   0.27115   0.27647   0.28958
     Eigenvalues ---    0.29599   0.33047   0.33383   0.34485   0.34525
     Eigenvalues ---    0.34677   0.34753   0.34772   0.34792   0.34813
     Eigenvalues ---    0.35504   0.35937   0.35956   0.35983   0.37607
     Eigenvalues ---    0.38709   0.40317   0.42362   0.42974   0.43078
     Eigenvalues ---    0.43870   0.44314   0.44542   0.47684   0.51332
     Eigenvalues ---    0.53123   0.56937   0.57559   0.58816   0.70972
     Eigenvalues ---    0.92591
 RFO step:  Lambda=-3.19128855D-02 EMin= 2.30000000D-03
 Linear search not attempted -- first point.
 Maximum step size (   0.300) exceeded in Quadratic search.
    -- Step size scaled by   0.998
 Iteration  1 RMS(Cart)=  0.17127306 RMS(Int)=  0.00431425
 Iteration  2 RMS(Cart)=  0.01012652 RMS(Int)=  0.00067407
 Iteration  3 RMS(Cart)=  0.00005925 RMS(Int)=  0.00067384
 Iteration  4 RMS(Cart)=  0.00000005 RMS(Int)=  0.00067384
 Variable       Old X    -DE/DX   Delta X   Delta X   Delta X     New X
                                 (Linear)    (Quad)   (Total)
    R1        2.58472  -0.01368   0.00000  -0.02541  -0.02544   2.55928
    R2        1.79539   0.02018   0.00000   0.03418   0.03423   1.82962
    R3        2.68899  -0.00909   0.00000  -0.02208  -0.02218   2.66681
    R4        2.66296  -0.01298   0.00000  -0.02738  -0.02740   2.63557
    R5        2.81240  -0.01291   0.00000  -0.03669  -0.03674   2.77566
    R6        2.67363  -0.01596   0.00000  -0.03449  -0.03451   2.63912
    R7        2.40241   0.01112   0.00000   0.01309   0.01294   2.41536
    R8        2.59054  -0.00526   0.00000  -0.01148  -0.01159   2.57895
    R9        2.72079   0.01322   0.00000   0.03230   0.03232   2.75311
   R10        2.95237  -0.01069   0.00000  -0.03575  -0.03575   2.91663
   R11        2.90482   0.00432   0.00000   0.01602   0.01620   2.92101
[...]
 ,-0.00080091,0.01804650,0.00632281,0.01758631,-0.04852459,-0.06411757,
 -0.04051106,-0.00191540,0.00057180,-0.00022961,0.00001386,0.00000225,0
 .00000230,-0.00001230,-0.00001059,0.00000207,-0.00000018,0.00000046,-0
 .00000010,0.00000283,0.00000697,-0.00000038,-0.00000434,-0.00001238,-0
 .00001197,-0.00001059,-0.00000215,0.00006499,-0.00009161,0.00010960,-0
 .00007414,-0.00036380,-0.00129572,0.00066161,0.00010204,0.00000570,-0.
 00000114,0.00002584,0.00015041,0.00002416,-0.00007788,0.00007769,-0.00
 006058,0.00000055,0.00016652,-0.00020356,0.00375558,-0.00260772,-0.001
 04778,0.05000393,0.06862511,-0.00005812,0.00001637,0.00001789,0.000056
 11,-0.00005126,-0.00001730,-0.00004432,0.00007274,0.00000276,0.0001437
 1,-0.00062348,0.00015949,0.00009121,0.00012801,-0.00015770,-0.00041381
 ,0.00008355,-0.00010724,-0.00062348,0.00051370,0.00056195,0.00020769,-
 0.00042213,-0.00017516,0.00026058,0.00026799,-0.00020866,0.00135037,-0
 .00402060,-0.00202606,-0.00083725,0.00030482,0.00116313,-0.00220482,-0
 .00011183,-0.00285333,0.00515077,0.00194979,0.00239220,-0.13320406,-0.
 03794784,-0.15660516,-0.00072038,0.00098288,0.00131287,0.00001137,-0.0
 0002255,-0.00000009,-0.00001059,-0.00000895,0.00000967,-0.00000655,0.0
 0001062,0.00000173,0.00000014,0.00001059,-0.00000328,-0.00000462,0.000
 00089,-0.00000375,0.00005656,0.00006884,-0.00003379,0.00004486,-0.0000
 3205,0.00001153,0.00048908,0.00039443,-0.00026378,-0.00004322,-0.00004
 235,0.00006905,-0.00002462,0.00007370,-0.00014546,-0.00009717,0.000108
 86,-0.00002860,0.00001266,0.00015368,-0.00027318,0.00134643,-0.0009225
 6,0.00084192,0.14431968,0.04408749,0.16689354,0.00003553,-0.00007237,0
 .00000782,-0.00007394,0.00010668,0.00000869,-0.00005130,-0.00012597,0.
 00005555,0.00019869,0.00077131,-0.00076869,-0.00064489,0.00194710,0.00
 084872,-0.00398201,0.00045092,0.00179876,-0.00117331,0.00015904,0.0001
 6141,0.00045039,-0.00016536,-0.00000850,0.00017637,0.00002025,0.000046
 79,-0.00073219,0.00055384,0.00030905,0.00034168,0.00000086,-0.00023970
 ,0.00001967,-0.00063571,-0.00074244,0.00833104,0.02871425,-0.00617884,
 -0.07780808,-0.08680069,0.01664561,0.00153190,-0.00178748,-0.00097489,
 -0.00001752,-0.00000505,-0.00001303,0.00001307,-0.00005013,0.00002676,
 -0.00000963,0.00001614,0.00000193,-0.00002363,0.00002453,0.00001404,0.
 00001294,-0.00000882,0.00000074,0.00000585,0.00001078,0.00002351,0.000
 05278,0.00017050,-0.00015400,0.00049839,-0.00016422,-0.00026401,-0.000
 06579,-0.00009895,0.00002915,-0.00002336,-0.00005114,-0.00005564,0.000
 02892,0.00000363,0.00003938,-0.00001131,-0.00005223,0.00005612,0.00133
 236,-0.00057446,-0.00031482,-0.00632539,-0.02122283,0.00732575,0.08228
 118,-0.00005050,0.00012356,-0.00002115,0.00009388,-0.00017010,0.000004
 14,0.00003118,0.00009169,-0.00008159,0.00000854,-0.00113424,0.00053827
 ,0.00058550,-0.00095914,-0.00088204,0.00310452,0.00150786,-0.00055235,
 0.00048615,0.00064280,0.00001068,-0.00014694,-0.00037761,0.00004777,-0
 .00006740,-0.00001977,0.00001653,-0.00015528,0.00002592,0.00028741,0.0
 0010439,0.00006209,-0.00017089,-0.00006432,-0.00016199,-0.00031222,-0.
 00726801,-0.02159222,0.00445780,-0.08394101,-0.28347244,0.04871201,-0.
 00076510,0.00171835,0.00022132,0.00000637,0.00002408,-0.00000344,-0.00
 000789,0.00006765,-0.00004826,0.00001715,-0.00002680,-0.00000308,0.000
 03594,-0.00004412,-0.00001293,-0.00002245,0.00002600,0.00000877,0.0000
 6230,-0.00009720,-0.00007893,0.00000904,-0.00041779,0.00013267,0.00014
 677,0.00003833,-0.00006409,-0.00002767,0.00010270,0.00002450,0.0000069
 6,0.00000193,-0.00000895,-0.00001560,-0.00001268,-0.00003565,0.0000006
 9,-0.00004320,0.00003507,0.00001146,0.00104957,-0.00003482,-0.00116962
 ,-0.00488421,0.00150252,0.08860992,0.30689646,-0.00002782,0.00001509,0
 .00005760,0.00003046,-0.00004638,-0.00001604,-0.00004249,0.00007345,-0
 .00000832,-0.00001149,-0.00037162,0.00009085,0.00030908,0.00001127,-0.
 00016141,0.00040531,-0.00026830,0.00098504,0.00003221,0.00003478,0.000
 05334,0.00008757,-0.00007554,-0.00000528,-0.00005977,0.00012490,0.0000
 5358,-0.00052209,0.00042422,0.00028048,0.00027416,0.00001112,-0.000173
 45,-0.00001110,-0.00041549,-0.00062957,-0.00048333,-0.00468784,-0.0014
 3835,0.01505377,0.04895316,-0.05671610,-0.00092998,0.00018203,0.001127
 09,-0.00000362,-0.00001596,0.00001535,0.00000166,-0.00000917,0.0000038
 7,-0.00001049,0.00001453,0.00000296,-0.00000472,0.00000727,0.00000416,
 -0.00000682,0.00000682,0.00000397,0.00004546,0.00002878,-0.00015276,0.
 00009854,-0.00039193,0.00000207,-0.00001065,-0.00000244,-0.00016758,-0
 .00001999,-0.00001162,0.00001557,-0.00000492,-0.00002133,0.00001971,0.
 00001257,-0.00001091,0.00000129,-0.00001928,-0.00004358,0.00003371,0.0
 0004064,0.00047822,-0.00013395,-0.00494588,-0.01962212,0.00516328,-0.0
 1836906,-0.05334899,0.05627612,-0.00000891,-0.00004838,0.00012531,0.00
 000286,0.00001170,-0.00005796,-0.00004614,0.00057971,-0.00006849,-0.00
 025083,-0.00204536,0.00139584,-0.00007081,0.00030092,-0.00061273,0.000
 65750,-0.00007666,0.00005565,0.00013763,-0.00001563,-0.00024363,0.0000
 0456,0.00011791,0.00002673,-0.00001288,0.00002935,-0.00001192,-0.00082
 250,0.00059565,0.00023064,0.00035218,0.00002054,-0.00021152,-0.0001047
 8,-0.00093413,-0.00054877,-0.00601155,-0.00436708,0.02315174,-0.077124
 15,-0.00106177,0.08355725,-0.00443910,0.00556979,0.00159904,-0.0000419
 3,-0.00006445,0.00013177,-0.00001645,-0.00002577,0.00003266,-0.0000381
 4,0.00004893,0.00001316,-0.00002970,0.00004602,-0.00000232,0.00001234,
 -0.00002221,-0.00000129,0.00000014,0.00014021,-0.00024487,0.00000314,0
 .00025367,-0.00009530,-0.00002342,0.00004342,0.00002101,-0.00000526,-0
 .00001383,-0.00000956,0.00000899,-0.00004107,0.00001403,0.00002318,-0.
 00001457,0.00000611,-0.00002473,-0.00003167,0.00004960,0.00044239,-0.0
 0073588,-0.00066076,0.01101045,0.00139407,-0.02257424,-0.00438959,0.00
 040147,0.00908890,0.08079765,0.00002957,0.00004024,-0.00010625,-0.0000
 2746,0.00000635,0.00005569,0.00004390,-0.00050959,0.00008376,0.0005130
 4,0.00181304,-0.00121314,-0.00025790,0.00001683,0.00051546,-0.00044999
 ,0.00013244,0.00008945,0.00025562,-0.00028098,-0.00021471,-0.00012338,
 0.00019603,0.00007797,-0.00004658,0.00014127,0.00001674,-0.00006247,0.
 00026236,0.00002139,-0.00000321,-0.00003316,-0.00003431,-0.00008931,-0
 .00024349,-0.00015212,0.00369136,0.00105507,-0.02116289,-0.00136329,-0
 .04583542,0.00776926,0.00501853,-0.00409080,-0.00172843,0.00003325,0.0
 0004744,-0.00011499,0.00002019,0.00001040,-0.00002565,0.00002970,-0.00
 003794,-0.00001016,0.00001839,-0.00003461,0.00000644,-0.00001010,0.000
 01981,0.00000297,0.00000999,-0.00016384,0.00015464,0.00005161,-0.00015
 398,0.00014437,-0.00046852,-0.00035600,-0.00016856,0.00003936,0.000021
 20,-0.00002508,0.00001882,0.00000691,0.00006921,0.00000550,-0.00000888
 ,0.00001206,0.00000773,-0.00002151,0.00003955,-0.00032565,0.00060241,0
 .00041849,0.00321583,-0.00116320,-0.00653071,-0.00971782,0.00100778,0.
 02897565,-0.00005534,0.04755788,0.00003351,-0.00000293,-0.00002909,-0.
 00001916,0.00002112,0.00001134,-0.00005402,-0.00008892,0.00000393,-0.0
 0011432,0.00093600,0.00022112,0.00009038,-0.00036921,0.00001934,0.0002
 4323,0.00032643,0.00025560,0.00041048,-0.00028129,-0.00011881,-0.00014
 506,0.00011151,0.00005328,-0.00012425,0.00012496,0.00006068,-0.0005681
 8,0.00074453,0.00019227,0.00021615,-0.00003638,-0.00021392,-0.00008639
 ,-0.00088009,-0.00050541,-0.00043103,0.00009146,-0.00350576,0.08547297
 ,0.00667796,-0.29053426,0.00052029,-0.00061073,0.00144273,-0.00001431,
 0.00001754,-0.00001912,0.00000978,0.00002073,-0.00001640,0.00001044,-0
 .00001514,-0.00000179,0.00000761,-0.00001738,-0.00000095,0.00000171,0.
 00000156,0.00000116,-0.00006839,-0.00004747,0.00010861,0.00004460,-0.0
 0023824,-0.00002207,-0.00037401,-0.00023567,-0.00005800,0.00001929,0.0
 0003204,-0.00002422,0.00001329,0.00000987,0.00008827,0.00001116,-0.000
 01966,0.00000205,-0.00000233,-0.00004415,0.00008771,0.00028743,-0.0003
 8332,0.00020644,0.00809841,0.00143947,-0.01570023,0.00067554,-0.000327
 11,-0.00458548,-0.09416095,-0.00695947,0.31258497,-0.00002512,0.000893
 38,-0.00067282,0.00182384,0.00422543,0.00299066,0.00577848,0.01020601,
 -0.01237775,-0.00275750,-0.00058547,-0.00138392,0.00004961,0.00079572,
 0.00046475,-0.00032630,-0.00035097,0.00018233,-0.00006822,-0.00005795,
 -0.00000506,0.00002854,0.00006574,-0.00002229,-0.00000426,0.00002810,0
 .00003096,-0.00004078,0.00006316,-0.00007183,0.00001863,-0.00004216,0.
 00005178,0.00003275,-0.00004269,0.00002828,0.00015679,-0.00007021,0.00
 013980,-0.00004028,-0.00004530,-0.00001865,0.00052032,-0.00090242,-0.0
 0023746,-0.04639532,-0.00640807,0.02055526,0.00279899,-0.01084165,0.01
 332759,-0.00118937,-0.00192161,-0.00112088,0.00141951,0.00293859,0.004
 64943,-0.00099802,0.00021019,-0.00030684,0.00014920,-0.00011299,-0.000
 25192,0.00000909,-0.00000380,-0.00001079,0.00001839,0.00000822,0.00000
 188,-0.00001453,-0.00004257,0.00002025,0.00000797,-0.00003614,-0.00002
 946,0.00001721,-0.00001036,0.00000377,0.00001198,0.00001774,-0.0000158
 5,-0.00001384,0.00001377,-0.00001604,0.00000012,0.00000080,-0.00000077
 ,0.00002247,-0.00002260,0.00000402,0.00001193,-0.00000469,-0.00000472,
 0.03907389,-0.00002617,-0.00096504,0.00104953,0.00481995,-0.00120415,-
 0.00099757,-0.00147760,-0.01236288,0.01878166,-0.00189459,-0.00214191,
 0.00069299,-0.00061124,0.00067717,0.00077652,0.00011710,0.00028076,-0.
 00062064,0.00004417,0.00016266,0.00004318,-0.00003665,-0.00010634,0.00
 002304,-0.00002909,-0.00002525,-0.00000546,0.00003514,-0.00005725,0.00
 008805,0.00002386,0.00004073,-0.00007500,-0.00001973,0.00002120,-0.000
 03143,-0.00010224,0.00004799,0.00006218,0.00005210,0.00006380,-0.00001
 309,-0.00018627,0.00057883,-0.00002417,-0.00687968,-0.17879696,0.14795
 235,0.00197899,0.00752300,-0.00627418,-0.00107146,0.00019985,-0.001304
 58,0.00302136,0.00128573,-0.00061925,-0.00007241,-0.00024249,-0.000627
 03,-0.00020258,0.00016627,0.00024980,-0.00001179,0.00000299,0.00002391
 ,-0.00004995,-0.00002504,-0.00000914,0.00000168,0.00006382,0.00000008,
 0.00002383,0.00002661,0.00000751,-0.00001532,0.00000603,-0.00000498,-0
 .00002670,-0.00001005,0.00000661,-0.00000082,0.00001253,0.00000874,-0.
 00000115,-0.00000056,0.00000305,-0.00002632,0.00002838,0.00000062,-0.0
 0000343,-0.00000121,0.00000347,0.00288370,0.18433454,0.00019223,-0.000
 45434,0.00031083,0.00250760,-0.00003957,0.00200431,0.00003442,-0.00152
 299,0.00567375,-0.00110270,-0.00104309,-0.00107223,0.00137164,-0.00086
 367,-0.00082132,-0.00013082,-0.00010179,-0.00002737,-0.00002829,0.0000
 2015,0.00003577,-0.00001368,-0.00000526,-0.00000551,-0.00000701,-0.000
 00375,-0.00001356,-0.00003332,0.00001194,0.00005315,0.00005250,0.00000
 259,-0.00004071,0.00001889,-0.00001879,-0.00001461,0.00013385,-0.00006
 903,-0.00004076,-0.00002315,-0.00001587,-0.00000547,-0.00007637,0.0003
 6303,0.00009184,0.02023366,0.14793433,-0.21738678,0.00083296,0.0154725
 8,-0.01189443,-0.00189295,-0.00000330,0.00008756,0.00464583,-0.0004752
 7,-0.00124453,-0.00003508,-0.00109426,0.00005350,-0.00008710,0.0000485
 0,0.00009061,0.00000036,-0.00000223,0.00000099,-0.00000777,-0.00000432
 ,-0.00000456,0.00000765,-0.00000022,0.00001049,-0.00003236,0.00000572,
 0.00000452,0.00000119,-0.00000127,-0.00000052,-0.00001344,0.00000318,-
 0.00000819,-0.00000671,0.00000918,0.00000992,-0.00000117,0.00000358,0.
 00000169,0.00000422,-0.00000642,-0.00000229,-0.00000092,-0.00000254,-0
 .00000318,-0.02623843,-0.15878375,0.22474576,-0.00059655,0.00020307,0.
 00067793,0.00452584,0.00452127,0.00192579,-0.00032351,-0.00001709,-0.0
 0084307,-0.00058248,-0.00021269,-0.00009078,0.00014256,0.00009634,0.00
 005211,-0.00005164,-0.00000805,-0.00001224,-0.00000446,-0.00000561,0.0
 0000309,0.00000012,0.00000039,-0.00000118,-0.00000059,0.00000358,0.000
 00135,0.00000570,0.00000627,-0.00001053,-0.00001481,-0.00000483,0.0000
 0393,-0.00000104,-0.00000220,0.00000234,0.00002979,-0.00001503,0.00000
 140,-0.00000457,-0.00000467,-0.00000086,0.00001848,-0.00006327,0.00003
 395,0.00369797,0.00147754,0.00134906,0.00254949,0.00192567,-0.00001638
 ,-0.00099677,-0.00099590,-0.00136874,-0.14404801,0.03792710,0.14025764
 ,-0.00365702,0.00195028,0.01229699,-0.00020008,0.00002481,-0.00021832,
 0.00000215,-0.00000222,-0.00000268,0.00000243,0.00000029,-0.00000083,-
 0.00000202,-0.00000286,0.00000299,-0.00000229,-0.00000234,-0.00000168,
 0.00000111,-0.00000121,0.00000026,0.00000628,0.00000321,0.00000753,-0.
 00000147,0.00000401,0.00000472,0.00000024,0.00000070,-0.00000010,0.000
 00137,-0.00000193,-0.00000024,0.00000014,0.00000036,0.00000014,0.00007
 290,-0.00007517,-0.00014503,0.14184726,0.00084866,-0.00032400,-0.00145
 951,0.00458511,-0.00194628,0.00243680,0.00014934,-0.00111790,-0.000077
 59,-0.00034755,-0.00017926,-0.00001106,0.00002925,0.00013390,0.0000190
 8,-0.00001643,0.00002207,-0.00003527,-0.00000289,-0.00000319,0.0000048
 3,0.00000070,0.00000259,-0.00000256,0.00000191,-0.00000022,-0.00000265
 ,-0.00002709,0.00000703,0.00002752,0.00003974,0.00000597,-0.00001548,0
 .00001409,-0.00001136,-0.00000588,-0.00001269,0.00001936,0.00004023,-0
 .00000022,0.00000228,-0.00000451,0.00000130,0.00003919,-0.00005508,0.0
 0150053,-0.00165368,0.00439103,-0.01140829,0.00658293,0.01636711,-0.00
 163543,0.00061650,-0.00020371,0.03865279,-0.06399743,-0.04031633,0.015
 20121,0.00006078,-0.02092722,0.00003258,-0.00032395,0.00015704,0.00000
 465,0.00000174,-0.00000211,0.00000088,0.00000007,-0.00000036,0.0000001
 4,-0.00000163,0.00000154,0.00000038,-0.00000147,-0.00000160,0.00000027
 ,0.00000024,-0.00000044,-0.00001831,0.00000298,-0.00000944,0.00000067,
 0.00000165,-0.00000406,-0.00000077,0.00000027,0.00000089,-0.00000080,0
 .00000032,0.00000097,0.00000148,-0.00000107,-0.00000068,-0.00066989,0.
 00045562,0.00063105,-0.04464367,0.06164451,-0.00003287,-0.00013077,0.0
 0008159,0.00189020,0.00231925,0.00287649,-0.00087468,0.00045269,0.0003
 2893,-0.00017164,-0.00018773,-0.00033409,0.00010227,0.00002006,0.00007
 978,-0.00002321,-0.00004885,0.00000005,-0.00000013,0.00002302,0.000005
 63,-0.00000237,-0.00000878,0.00000272,-0.00000147,0.00000002,0.0000014
 7,0.00001562,-0.00000820,-0.00000687,-0.00002143,0.00000308,0.00000035
 ,-0.00000798,0.00000761,0.00000141,0.00001951,-0.00001923,0.00000220,-
 0.00000107,-0.00000392,-0.00000143,-0.00000272,-0.00002724,-0.00000846
 ,0.00123324,0.00444970,-0.00110702,0.01312725,-0.00606093,-0.01250918,
 -0.00073242,-0.00129052,0.00020066,0.13946077,-0.03897766,-0.23547885,
 -0.00055485,0.00118737,0.00453924,-0.00015291,-0.00001453,0.00000039,-
 0.00000750,0.00000844,0.00000582,-0.00000595,-0.00000343,0.00000019,-0
 .00000041,0.00000285,0.00000059,0.00000060,0.00000336,0.00000086,-0.00
 000109,0.00000033,0.,-0.00000127,-0.00000343,0.00000423,-0.00000272,0.
 00000077,0.00000285,-0.00000033,0.00000034,0.00000018,0.00000029,0.000
 00015,0.,0.00000003,0.00000017,0.00000019,0.00048394,-0.00039658,-0.00
 050185,-0.15193484,0.03990662,0.24242082,-0.00080695,-0.00191837,-0.00
 214741,0.00379647,-0.01153845,0.01381346,0.00091073,0.00255872,0.00402
 763,0.00034037,-0.00081538,0.00027694,-0.00030026,0.00006651,0.0002707
 6,0.00000586,-0.00008068,0.00000521,0.00000860,0.00004466,0.00002386,-
 0.00001132,-0.00002299,0.00000086,-0.00000148,-0.00000518,-0.00000564,
 -0.00000070,-0.00001371,0.00004293,0.00001595,0.00002017,-0.00005255,0
 .00000286,0.00000365,-0.00001584,-0.00000279,-0.00000472,-0.00004617,0
 .00000382,0.00000394,0.00001094,-0.00000074,0.00003597,-0.00002583,-0.
 00119651,0.00041691,0.00008026,0.00333368,0.00446976,0.00258214,-0.000
 16270,0.00098746,-0.00034499,0.00442455,0.01091528,-0.01287439,-0.0450
 6723,-0.00175101,0.01807675,-0.00034520,-0.00025664,-0.00019865,-0.000
 02371,0.00001218,0.00001354,-0.00001446,-0.00000671,-0.00000155,0.0000
 0265,0.00001182,-0.00000026,0.00000336,0.00000721,0.00000376,-0.000004
 01,0.00000158,-0.00000192,-0.00001188,-0.00000669,0.00001673,-0.000002
 05,0.00000084,0.00000598,-0.00000003,0.00000035,0.00000114,-0.00000266
 ,0.00000410,-0.00000060,-0.00000418,0.00000297,0.00000072,-0.00014907,
 -0.00018153,-0.00016070,-0.00241652,-0.00228163,-0.00179987,0.03767556
 ,-0.00139173,-0.00009907,-0.00063921,0.00190686,0.00736872,-0.00558111
 ,0.00240903,0.00100778,-0.00026560,-0.00004578,0.00029584,-0.00029167,
 0.00010013,-0.00002719,-0.00019184,0.00001054,0.00002834,-0.00001602,-
 0.00000520,-0.00001692,-0.00000309,0.00000355,0.00001360,-0.00000570,0
 .00000214,0.00000158,-0.00000398,-0.00004680,0.00001696,0.00004359,0.0
 0004256,0.00000571,-0.00003159,0.00002428,-0.00002246,-0.00000974,-0.0
 0001525,0.00001364,0.00004941,-0.00000197,0.00000009,-0.00000734,0.000
 02413,0.00003851,-0.00005905,-0.00000772,-0.00027172,-0.00070588,0.004
 65601,-0.00041227,-0.00005987,0.00038056,-0.00108453,0.00061411,-0.002
 19715,-0.01237449,0.01920815,-0.00262101,-0.18131486,0.14891804,-0.000
 27443,-0.00005787,-0.00013976,0.00001038,-0.00000197,-0.00000959,0.000
 00438,0.00000256,0.00000074,0.00000060,-0.00000550,0.00000080,-0.00000
 228,-0.00000330,0.00000015,0.00000102,0.00000023,0.00000028,-0.0000246
 5,0.00000920,-0.00000423,0.00000069,-0.00000005,-0.00000538,-0.0000003
 3,0.00000094,0.00000090,0.00000057,-0.00000195,0.00000033,0.00000239,-
 0.00000178,-0.00000084,-0.00017901,-0.00003938,0.00000592,-0.00208612,
 -0.00003858,-0.00120402,-0.00068039,0.18697020,-0.00263432,0.00026366,
 0.00114729,0.00039487,0.01762809,-0.01310681,0.00429796,-0.00069653,-0
 .00190214,-0.00063759,0.00103987,-0.00001861,0.00031926,-0.00008629,-0
 .00049945,-0.00001217,0.00008671,0.00001394,-0.00000966,-0.00006870,-0
 .00002239,0.00001081,0.00003325,-0.00000771,0.00000529,0.00000554,0.00
 000086,-0.00002914,0.00002700,-0.00000177,0.00003049,-0.00000943,0.000
 00636,0.00001955,-0.00002255,0.00000260,0.00002984,-0.00000889,0.00003
 171,-0.00000622,-0.00000325,-0.00001529,0.00004762,-0.00012367,0.00009
 792,0.00030902,-0.00134371,-0.00016533,0.00250327,0.00023887,0.0029748
 6,0.00023365,-0.00039061,0.00019199,0.00019222,-0.00337768,0.00619117,
 0.01880256,0.14753745,-0.21355525,-0.00023706,-0.00025492,-0.00014707,
 0.00002542,-0.00001874,-0.00002184,0.00001961,0.00001086,0.00000293,-0
 .00000228,-0.00001613,0.00000176,-0.00000527,-0.00000945,-0.00000403,0
 .00000487,-0.00000147,0.00000177,0.00001663,0.00001384,-0.00000662,0.0
 0000173,-0.00000043,-0.00000666,-0.00000029,0.00000080,-0.00000012,0.0
 0000377,-0.00000673,0.00000054,0.00000575,-0.00000428,-0.00000101,-0.0
 0014921,0.00001353,-0.00008682,-0.00197371,-0.00084915,-0.00060885,-0.
 02157726,-0.15960687,0.21951206\\0.00000778,0.00000771,0.00000117,0.00
 000038,-0.00001437,-0.00000302,-0.00000096,-0.00001290,0.00000131,0.00
 001866,0.00002442,0.00000369,-0.00002969,0.00000063,0.00001495,0.00001
 615,-0.00001157,-0.00003596,0.00000413,-0.00001286,0.00000813,-0.00001
 009,0.00000723,-0.00000261,0.00000163,0.00001826,-0.00001026,0.0000035
 7,-0.00000741,0.00000361,0.00000304,-0.00000250,0.00001305,-0.00000337
 ,0.00001703,0.00000041,-0.00001359,-0.00000844,0.00001123,0.00000428,0
 .00000684,0.00000058,0.00000513,-0.00000576,-0.00000475,-0.00000660,0.
 00000321,0.00000434,0.00000404,-0.00001210,-0.00000424,-0.00000690,-0.
 00000077,-0.00000370,-0.00000171,0.00000030,0.00000240,-0.00000236,0.0
 0000924,-0.00000267,0.00000170,0.00000374,0.00000278,-0.00000346,0.000
 00199,0.00000668,-0.00000215,0.00000672,0.00000064,0.00000039,-0.00000
 153,-0.00000204,-0.00000675,-0.00000083,0.00000037,-0.00000320,-0.0000
 0228,-0.00000168,-0.00000266,0.00001248,-0.00001116,0.00000799,-0.0000
 0801,0.00000189,-0.00000014,-0.00000311,0.00000112,0.00000910,0.,0.000
 00446,0.00000587,-0.00000197,0.00000167,-0.00000213,-0.00000510,-0.000
 00285,-0.00000042,-0.00000562,-0.00000066,0.00000233,-0.00000266,0.000
 00113\\\@


 EDUCATION WITHOUT COMMON SENSE IS A LOAD OF BOOKS ON THE BACK OF AN ASS.
 Job cpu time:  0 days  8 hours 54 minutes 26.8 seconds.
 File lengths (MBytes):  RWF=    861 Int=      0 D2E=      0 Chk=     21 Scr=      1
 Normal termination of Gaussian 09 at Sat Mar 23 00:28:31 2019.
