 Entering Gaussian System, Link 0=g09
 Initial command:
 /home/yuheng/proj/yuheng/g09/l1.exe /home/yuheng/proj/yuheng/g09_scratch/Gau-36978.inp -scrdir=/home/yuheng/proj/yuheng/g09_scratch/
 Entering Link 1 = /home/yuheng/proj/yuheng/g09/l1.exe PID=     36979.
  
 Copyright (c) 1988,1990,1992,1993,1995,1998,2003,2009,2010,
            Gaussian, Inc.  All Rights Reserved.
  
 This is part of the Gaussian(R) 09 program.  It is based on
 the Gaussian(R) 03 system (copyright 2003, Gaussian, Inc.),
 the Gaussian(R) 98 system (copyright 1998, Gaussian, Inc.),
 the Gaussian(R) 94 system (copyright 1995, Gaussian, Inc.),
 the Gaussian 92(TM) system (copyright 1992, Gaussian, Inc.),
 the Gaussian 90(TM) system (copyright 1990, Gaussian, Inc.),
 the Gaussian 88(TM) system (copyright 1988, Gaussian, Inc.),
 the Gaussian 86(TM) system (copyright 1986, Carnegie Mellon
 University), and the Gaussian 82(TM) system (copyright 1983,
 Carnegie Mellon University). Gaussian is a federally registered
 trademark of Gaussian, Inc.
  
 This software contains proprietary and confidential information,
 including trade secrets, belonging to Gaussian, Inc.
  
 This software is provided under written license and may be
 used, copied, transmitted, or stored only in accord with that
 written license.
  
 The following legend is applicable only to US Government
 contracts under FAR:
  
                    RESTRICTED RIGHTS LEGEND
  
 Use, reproduction and disclosure by the US Government is
 subject to restrictions as set forth in subparagraphs (a)
 and (c) of the Commercial Computer Software - Restricted
 Rights clause in FAR 52.227-19.
  
 Gaussian, Inc.
 340 Quinnipiac St., Bldg. 40, Wallingford CT 06492
  
  
 ---------------------------------------------------------------
 Warning -- This program may not be used in any manner that
 competes with the business of Gaussian, Inc. or will provide
 assistance to any competitor of Gaussian, Inc.  The licensee
 of this program is prohibited from giving any competitor of
 Gaussian, Inc. access to this program.  By using this program,
 the user acknowledges that Gaussian, Inc. is engaged in the
 business of creating and licensing software in the field of
 computational chemistry and represents and warrants to the
 licensee that it is not a competitor of Gaussian, Inc. and that
 it will not use this program in any manner prohibited above.
 ---------------------------------------------------------------
  

 Cite this work as:
 Gaussian 09, Revision B.01,
 M. J. Frisch, G. W. Trucks, H. B. Schlegel, G. E. Scuseria, 
 M. A. Robb, J. R. Cheeseman, G. Scalmani, V. Barone, B. Mennucci, 
 G. A. Petersson, H. Nakatsuji, M. Caricato, X. Li, H. P. Hratchian, 
 A. F. Izmaylov, J. Bloino, G. Zheng, J. L. Sonnenberg, M. Hada, 
 M. Ehara, K. Toyota, R. Fukuda, J. Hasegawa, M. Ishida, T. Nakajima, 
 Y. Honda, O. Kitao, H. Nakai, T. Vreven, J. A. Montgomery, Jr., 
 J. E. Peralta, F. Ogliaro, M. Bearpark, J. J. Heyd, E. Brothers, 
 K. N. Kudin, V. N. Staroverov, T. Keith, R. Kobayashi, J. Normand, 
 K. Raghavachari, A. Rendell, J. C. Burant, S. S. Iyengar, J. Tomasi, 
 M. Cossi, N. Rega, J. M. Millam, M. Klene, J. E. Knox, J. B. Cross, 
 V. Bakken, C. Adamo, J. Jaramillo, R. Gomperts, R. E. Stratmann, 
 O. Yazyev, A. J. Austin, R. Cammi, C. Pomelli, J. W. Ochterski, 
 R. L. Martin, K. Morokuma, V. G. Zakrzewski, G. A. Voth, 
 P. Salvador, J. J. Dannenberg, S. Dapprich, A. D. Daniels, 
 O. Farkas, J. B. Foresman, J. V. Ortiz, J. Cioslowski, 
 and D. J. Fox, Gaussian, Inc., Wallingford CT, 2010.
 
 ******************************************
 Gaussian 09:  EM64L-G09RevB.01 12-Aug-2010
                22-Mar-2019 
 ******************************************
 %mem=16gb
 %nprocshared=20
 Will use up to   20 processors via shared memory.
 %chk=1b-conf-8.chk
 ----------------------------------------------------------------------
 # m062x/6-31+G(d,p) opt freq=noraman integral(ultrafinegrid) scrf=(ief
 pcm,read,solvent=methanol)
 ----------------------------------------------------------------------
 1/14=-1,18=20,19=15,26=3,38=1,40=2/1,3;
 2/9=110,12=2,17=6,18=5,40=1/2;
 3/5=1,6=6,7=111,11=2,16=1,25=1,30=1,70=2203,71=1,72=3,74=-55,75=-5/1,2,3;
 4//1;
 5/5=2,38=5,53=3/2;
 6/7=2,8=2,9=2,10=2,28=1/1;
 7//1,2,3,16;
 1/14=-1,18=20,19=15/3(2);
 2/9=110/2;
 99//99;
 2/9=110/2;
 3/5=1,6=6,7=111,11=2,16=1,25=1,30=1,70=2205,71=1,72=3,74=-55,75=-5/1,2,3;
 4/5=5,16=3/1;
 5/5=2,38=5,53=3/2;
 7//1,2,3,16;
 1/14=-1,18=20,19=15/3(-5);
 2/9=110/2;
 6/7=2,8=2,9=2,10=2,19=2,28=1/1;
 99/9=1/99;
 ----------------------------------------------------------------------
 Candidate Structure: 1b, Conformer: 8 geometry optimization and freque
 ncy calculation with methanol solvation
 ----------------------------------------------------------------------
 Symbolic Z-matrix:
 Charge =  0 Multiplicity = 1
 O                    -1.59271   0.48743  -1.51301 
 C                    -1.95747   1.78987  -1.32464 
 C                    -1.03077   2.78591  -0.90482 
 C                     0.4097    2.51344  -0.64194 
 N                     0.97587   1.39684  -0.86961 
 C                     2.37772   1.53025  -0.55095 
 C                     3.21823   1.40332  -1.85034 
 O                     3.02759   0.06677  -2.27645 
 C                     2.80723   2.35331  -3.00882 
 C                     3.91264   2.59174  -4.03817 
 O                     4.99648   3.20765  -3.49581 
 O                     3.8087    2.30509  -5.22647 
 C                     2.45938   2.84953   0.23954 
 C                     3.67961   3.76105   0.02753 
 O                     1.24264   3.46548  -0.122 
 C                    -1.48484   4.11165  -0.72401 
 C                    -2.83139   4.44671  -0.95651 
 Cl                   -3.36499   6.07136  -0.73109 
 C                    -3.74175   3.45873  -1.37276 
 C                    -3.30418   2.13381  -1.55557 
 H                    -0.66206   0.38548  -1.32719 
 H                     2.67888   0.72726   0.12595 
 H                     4.27448   1.53032  -1.60675 
 H                     2.09938  -0.10817  -2.17971 
 H                     2.52362   3.33209  -2.62737 
 H                     1.91964   1.97744  -3.51903 
 H                     5.64055   3.34323  -4.17422 
 H                     2.39093   2.61928   1.30475 
 H                     3.76662   4.12556  -0.99378 
 H                     3.61493   4.6366    0.67365 
 H                     4.60395   3.23962   0.27682 
 H                    -0.80213   4.88616  -0.40579 
 H                    -4.77536   3.71685  -1.55099 
 H                    -4.00579   1.37626  -1.87383 
 

 GradGradGradGradGradGradGradGradGradGradGradGradGradGradGradGradGradGrad
 Berny optimization.
 Initialization pass.
                           ----------------------------
                           !    Initial Parameters    !
                           ! (Angstroms and Degrees)  !
 --------------------------                            --------------------------
 ! Name  Definition              Value          Derivative Info.                !
 --------------------------------------------------------------------------------
 ! R1    R(1,2)                  1.3656         estimate D2E/DX2                !
 ! R2    R(1,21)                 0.9545         estimate D2E/DX2                !
 ! R3    R(2,3)                  1.4238         estimate D2E/DX2                !
 ! R4    R(2,20)                 1.409          estimate D2E/DX2                !
 ! R5    R(3,4)                  1.4894         estimate D2E/DX2                !
 ! R6    R(3,16)                 1.413          estimate D2E/DX2                !
 ! R7    R(4,5)                  1.2725         estimate D2E/DX2                !
 ! R8    R(4,15)                 1.3677         estimate D2E/DX2                !
 ! R9    R(5,6)                  1.4438         estimate D2E/DX2                !
 ! R10   R(6,7)                  1.5527         estimate D2E/DX2                !
 ! R11   R(6,13)                 1.5401         estimate D2E/DX2                !
 ! R12   R(6,22)                 1.0926         estimate D2E/DX2                !
 ! R13   R(7,8)                  1.4157         estimate D2E/DX2                !
 ! R14   R(7,9)                  1.5535         estimate D2E/DX2                !
 ! R15   R(7,23)                 1.0914         estimate D2E/DX2                !
 ! R16   R(8,24)                 0.9495         estimate D2E/DX2                !
 ! R17   R(9,10)                 1.5292         estimate D2E/DX2                !
 ! R18   R(9,25)                 1.0881         estimate D2E/DX2                !
 ! R19   R(9,26)                 1.0906         estimate D2E/DX2                !
 ! R20   R(10,11)                1.3595         estimate D2E/DX2                !
 ! R21   R(10,12)                1.2268         estimate D2E/DX2                !
 ! R22   R(11,27)                0.9452         estimate D2E/DX2                !
 ! R23   R(13,14)                1.5378         estimate D2E/DX2                !
 ! R24   R(13,15)                1.4109         estimate D2E/DX2                !
 ! R25   R(13,28)                1.092          estimate D2E/DX2                !
 ! R26   R(14,29)                1.0879         estimate D2E/DX2                !
 ! R27   R(14,30)                1.0901         estimate D2E/DX2                !
 ! R28   R(14,31)                1.0902         estimate D2E/DX2                !
 ! R29   R(16,17)                1.407          estimate D2E/DX2                !
 ! R30   R(16,32)                1.0804         estimate D2E/DX2                !
 ! R31   R(17,18)                1.7248         estimate D2E/DX2                !
 ! R32   R(17,19)                1.4065         estimate D2E/DX2                !
 ! R33   R(19,20)                1.4072         estimate D2E/DX2                !
 ! R34   R(19,33)                1.0802         estimate D2E/DX2                !
 ! R35   R(20,34)                1.0805         estimate D2E/DX2                !
 ! A1    A(2,1,21)             109.5999         estimate D2E/DX2                !
 ! A2    A(1,2,3)              122.2794         estimate D2E/DX2                !
 ! A3    A(1,2,20)             117.743          estimate D2E/DX2                !
 ! A4    A(3,2,20)             119.9773         estimate D2E/DX2                !
 ! A5    A(2,3,4)              123.611          estimate D2E/DX2                !
 ! A6    A(2,3,16)             119.0106         estimate D2E/DX2                !
 ! A7    A(4,3,16)             117.3784         estimate D2E/DX2                !
 ! A8    A(3,4,5)              124.006          estimate D2E/DX2                !
 ! A9    A(3,4,15)             121.9223         estimate D2E/DX2                !
 ! A10   A(5,4,15)             114.0714         estimate D2E/DX2                !
 ! A11   A(4,5,6)              108.1459         estimate D2E/DX2                !
 ! A12   A(5,6,7)              109.4711         estimate D2E/DX2                !
 ! A13   A(5,6,13)             104.1181         estimate D2E/DX2                !
 ! A14   A(5,6,22)             109.6615         estimate D2E/DX2                !
 ! A15   A(7,6,13)             118.0886         estimate D2E/DX2                !
 ! A16   A(7,6,22)             108.0091         estimate D2E/DX2                !
 ! A17   A(13,6,22)            107.2758         estimate D2E/DX2                !
 ! A18   A(6,7,8)              104.8422         estimate D2E/DX2                !
 ! A19   A(6,7,9)              115.5209         estimate D2E/DX2                !
 ! A20   A(6,7,23)             109.1226         estimate D2E/DX2                !
 ! A21   A(8,7,9)              108.4955         estimate D2E/DX2                !
 ! A22   A(8,7,23)             107.9001         estimate D2E/DX2                !
 ! A23   A(9,7,23)             110.5681         estimate D2E/DX2                !
 ! A24   A(7,8,24)             105.9567         estimate D2E/DX2                !
 ! A25   A(7,9,10)             113.9585         estimate D2E/DX2                !
 ! A26   A(7,9,25)             110.9534         estimate D2E/DX2                !
 ! A27   A(7,9,26)             110.6967         estimate D2E/DX2                !
 ! A28   A(10,9,25)            106.5073         estimate D2E/DX2                !
 ! A29   A(10,9,26)            109.0956         estimate D2E/DX2                !
 ! A30   A(25,9,26)            105.1821         estimate D2E/DX2                !
 ! A31   A(9,10,11)            112.2349         estimate D2E/DX2                !
 ! A32   A(9,10,12)            123.666          estimate D2E/DX2                !
 ! A33   A(11,10,12)           124.0437         estimate D2E/DX2                !
 ! A34   A(10,11,27)           108.7771         estimate D2E/DX2                !
 ! A35   A(6,13,14)            118.6238         estimate D2E/DX2                !
 ! A36   A(6,13,15)            101.3448         estimate D2E/DX2                !
 ! A37   A(6,13,28)            108.4656         estimate D2E/DX2                !
 ! A38   A(14,13,15)           112.9674         estimate D2E/DX2                !
 ! A39   A(14,13,28)           108.0126         estimate D2E/DX2                !
 ! A40   A(15,13,28)           106.7366         estimate D2E/DX2                !
 ! A41   A(13,14,29)           113.0485         estimate D2E/DX2                !
 ! A42   A(13,14,30)           110.3217         estimate D2E/DX2                !
 ! A43   A(13,14,31)           110.9624         estimate D2E/DX2                !
 ! A44   A(29,14,30)           106.9827         estimate D2E/DX2                !
 ! A45   A(29,14,31)           107.8861         estimate D2E/DX2                !
 ! A46   A(30,14,31)           107.3946         estimate D2E/DX2                !
 ! A47   A(4,15,13)            108.5871         estimate D2E/DX2                !
 ! A48   A(3,16,17)            120.6546         estimate D2E/DX2                !
 ! A49   A(3,16,32)            120.4816         estimate D2E/DX2                !
 ! A50   A(17,16,32)           118.8638         estimate D2E/DX2                !
 ! A51   A(16,17,18)           119.9211         estimate D2E/DX2                !
 ! A52   A(16,17,19)           120.0729         estimate D2E/DX2                !
 ! A53   A(18,17,19)           120.006          estimate D2E/DX2                !
 ! A54   A(17,19,20)           119.9041         estimate D2E/DX2                !
 ! A55   A(17,19,33)           120.0234         estimate D2E/DX2                !
 ! A56   A(20,19,33)           120.0725         estimate D2E/DX2                !
 ! A57   A(2,20,19)            120.3804         estimate D2E/DX2                !
 ! A58   A(2,20,34)            119.8531         estimate D2E/DX2                !
 ! A59   A(19,20,34)           119.7664         estimate D2E/DX2                !
 ! D1    D(21,1,2,3)            -0.3513         estimate D2E/DX2                !
 ! D2    D(21,1,2,20)          179.8828         estimate D2E/DX2                !
 ! D3    D(1,2,3,4)              0.43           estimate D2E/DX2                !
 ! D4    D(1,2,3,16)          -179.6453         estimate D2E/DX2                !
 ! D5    D(20,2,3,4)          -179.8092         estimate D2E/DX2                !
 ! D6    D(20,2,3,16)            0.1155         estimate D2E/DX2                !
 ! D7    D(1,2,20,19)          179.7234         estimate D2E/DX2                !
 ! D8    D(1,2,20,34)           -0.21           estimate D2E/DX2                !
 ! D9    D(3,2,20,19)           -0.0481         estimate D2E/DX2                !
 ! D10   D(3,2,20,34)         -179.9815         estimate D2E/DX2                !
 ! D11   D(2,3,4,5)              5.9742         estimate D2E/DX2                !
 ! D12   D(2,3,4,15)          -173.8367         estimate D2E/DX2                !
 ! D13   D(16,3,4,5)          -173.9516         estimate D2E/DX2                !
 ! D14   D(16,3,4,15)            6.2375         estimate D2E/DX2                !
 ! D15   D(2,3,16,17)           -0.1035         estimate D2E/DX2                !
 ! D16   D(2,3,16,32)          179.9848         estimate D2E/DX2                !
 ! D17   D(4,3,16,17)          179.8259         estimate D2E/DX2                !
 ! D18   D(4,3,16,32)           -0.0858         estimate D2E/DX2                !
 ! D19   D(3,4,5,6)            177.3765         estimate D2E/DX2                !
 ! D20   D(15,4,5,6)            -2.7993         estimate D2E/DX2                !
 ! D21   D(3,4,15,13)          169.3464         estimate D2E/DX2                !
 ! D22   D(5,4,15,13)          -10.4819         estimate D2E/DX2                !
 ! D23   D(4,5,6,7)           -113.5869         estimate D2E/DX2                !
 ! D24   D(4,5,6,13)            13.561          estimate D2E/DX2                !
 ! D25   D(4,5,6,22)           128.0832         estimate D2E/DX2                !
 ! D26   D(5,6,7,8)            -66.0603         estimate D2E/DX2                !
 ! D27   D(5,6,7,9)             53.2921         estimate D2E/DX2                !
 ! D28   D(5,6,7,23)           178.5724         estimate D2E/DX2                !
 ! D29   D(13,6,7,8)           175.1272         estimate D2E/DX2                !
 ! D30   D(13,6,7,9)           -65.5204         estimate D2E/DX2                !
 ! D31   D(13,6,7,23)           59.7599         estimate D2E/DX2                !
 ! D32   D(22,6,7,8)            53.2931         estimate D2E/DX2                !
 ! D33   D(22,6,7,9)           172.6456         estimate D2E/DX2                !
 ! D34   D(22,6,7,23)          -62.0742         estimate D2E/DX2                !
 ! D35   D(5,6,13,14)         -142.7865         estimate D2E/DX2                !
 ! D36   D(5,6,13,15)          -18.5304         estimate D2E/DX2                !
 ! D37   D(5,6,13,28)           93.596          estimate D2E/DX2                !
 ! D38   D(7,6,13,14)          -21.1967         estimate D2E/DX2                !
 ! D39   D(7,6,13,15)          103.0593         estimate D2E/DX2                !
 ! D40   D(7,6,13,28)         -144.8143         estimate D2E/DX2                !
 ! D41   D(22,6,13,14)         101.0103         estimate D2E/DX2                !
 ! D42   D(22,6,13,15)        -134.7336         estimate D2E/DX2                !
 ! D43   D(22,6,13,28)         -22.6073         estimate D2E/DX2                !
 ! D44   D(6,7,8,24)            43.8885         estimate D2E/DX2                !
 ! D45   D(9,7,8,24)           -80.0728         estimate D2E/DX2                !
 ! D46   D(23,7,8,24)          160.1028         estimate D2E/DX2                !
 ! D47   D(6,7,9,10)           158.4298         estimate D2E/DX2                !
 ! D48   D(6,7,9,25)            38.2241         estimate D2E/DX2                !
 ! D49   D(6,7,9,26)           -78.1642         estimate D2E/DX2                !
 ! D50   D(8,7,9,10)           -84.2465         estimate D2E/DX2                !
 ! D51   D(8,7,9,25)           155.5478         estimate D2E/DX2                !
 ! D52   D(8,7,9,26)            39.1595         estimate D2E/DX2                !
 ! D53   D(23,7,9,10)           33.8973         estimate D2E/DX2                !
 ! D54   D(23,7,9,25)          -86.3084         estimate D2E/DX2                !
 ! D55   D(23,7,9,26)          157.3033         estimate D2E/DX2                !
 ! D56   D(7,9,10,11)          -62.9229         estimate D2E/DX2                !
 ! D57   D(7,9,10,12)          119.691          estimate D2E/DX2                !
 ! D58   D(25,9,10,11)          59.7495         estimate D2E/DX2                !
 ! D59   D(25,9,10,12)        -117.6365         estimate D2E/DX2                !
 ! D60   D(26,9,10,11)         172.8066         estimate D2E/DX2                !
 ! D61   D(26,9,10,12)          -4.5794         estimate D2E/DX2                !
 ! D62   D(9,10,11,27)        -179.085          estimate D2E/DX2                !
 ! D63   D(12,10,11,27)         -1.7106         estimate D2E/DX2                !
 ! D64   D(6,13,14,29)          62.0848         estimate D2E/DX2                !
 ! D65   D(6,13,14,30)        -178.1756         estimate D2E/DX2                !
 ! D66   D(6,13,14,31)         -59.2764         estimate D2E/DX2                !
 ! D67   D(15,13,14,29)        -56.2544         estimate D2E/DX2                !
 ! D68   D(15,13,14,30)         63.4853         estimate D2E/DX2                !
 ! D69   D(15,13,14,31)       -177.6155         estimate D2E/DX2                !
 ! D70   D(28,13,14,29)       -174.0741         estimate D2E/DX2                !
 ! D71   D(28,13,14,30)        -54.3344         estimate D2E/DX2                !
 ! D72   D(28,13,14,31)         64.5648         estimate D2E/DX2                !
 ! D73   D(6,13,15,4)           17.4817         estimate D2E/DX2                !
 ! D74   D(14,13,15,4)         145.4845         estimate D2E/DX2                !
 ! D75   D(28,13,15,4)         -95.9509         estimate D2E/DX2                !
 ! D76   D(3,16,17,18)        -179.952          estimate D2E/DX2                !
 ! D77   D(3,16,17,19)           0.0233         estimate D2E/DX2                !
 ! D78   D(32,16,17,18)         -0.0389         estimate D2E/DX2                !
 ! D79   D(32,16,17,19)        179.9364         estimate D2E/DX2                !
 ! D80   D(16,17,19,20)          0.0459         estimate D2E/DX2                !
 ! D81   D(16,17,19,33)        179.9983         estimate D2E/DX2                !
 ! D82   D(18,17,19,20)       -179.9787         estimate D2E/DX2                !
 ! D83   D(18,17,19,33)         -0.0264         estimate D2E/DX2                !
 ! D84   D(17,19,20,2)          -0.0332         estimate D2E/DX2                !
 ! D85   D(17,19,20,34)        179.9001         estimate D2E/DX2                !
 ! D86   D(33,19,20,2)        -179.9856         estimate D2E/DX2                !
 ! D87   D(33,19,20,34)         -0.0522         estimate D2E/DX2                !
 --------------------------------------------------------------------------------
 Trust Radius=3.00D-01 FncErr=1.00D-07 GrdErr=1.00D-06
 Number of steps in this run=    191 maximum allowed number of steps=    204.
 GradGradGradGradGradGradGradGradGradGradGradGradGradGradGradGradGradGrad

                          Input orientation:                          
 ---------------------------------------------------------------------
 Center     Atomic      Atomic             Coordinates (Angstroms)
 Number     Number       Type             X           Y           Z
 ---------------------------------------------------------------------
      1          8           0       -1.592709    0.487429   -1.513008
      2          6           0       -1.957466    1.789868   -1.324643
      3          6           0       -1.030775    2.785913   -0.904821
      4          6           0        0.409703    2.513436   -0.641944
      5          7           0        0.975874    1.396837   -0.869605
      6          6           0        2.377718    1.530254   -0.550945
      7          6           0        3.218231    1.403322   -1.850339
      8          8           0        3.027590    0.066769   -2.276450
      9          6           0        2.807233    2.353306   -3.008817
     10          6           0        3.912636    2.591740   -4.038170
     11          8           0        4.996483    3.207646   -3.495809
     12          8           0        3.808702    2.305088   -5.226472
     13          6           0        2.459381    2.849531    0.239543
     14          6           0        3.679610    3.761052    0.027525
     15          8           0        1.242645    3.465475   -0.121999
     16          6           0       -1.484836    4.111649   -0.724013
     17          6           0       -2.831385    4.446712   -0.956509
     18         17           0       -3.364994    6.071362   -0.731089
     19          6           0       -3.741749    3.458733   -1.372756
     20          6           0       -3.304176    2.133813   -1.555570
     21          1           0       -0.662064    0.385481   -1.327185
     22          1           0        2.678878    0.727255    0.125945
     23          1           0        4.274478    1.530321   -1.606747
     24          1           0        2.099378   -0.108167   -2.179705
     25          1           0        2.523620    3.332094   -2.627372
     26          1           0        1.919642    1.977439   -3.519025
     27          1           0        5.640545    3.343232   -4.174217
     28          1           0        2.390928    2.619277    1.304754
     29          1           0        3.766624    4.125563   -0.993776
     30          1           0        3.614925    4.636600    0.673652
     31          1           0        4.603948    3.239617    0.276818
     32          1           0       -0.802130    4.886164   -0.405790
     33          1           0       -4.775359    3.716852   -1.550994
     34          1           0       -4.005791    1.376262   -1.873833
 ---------------------------------------------------------------------
                    Distance matrix (angstroms):
                    1          2          3          4          5
     1  O    0.000000
     2  C    1.365605   0.000000
     3  C    2.443090   1.423767   0.000000
     4  C    2.978777   2.567707   1.489404   0.000000
     5  N    2.799752   2.994331   2.440781   1.272467   0.000000
     6  C    4.216318   4.411330   3.649621   2.201820   1.443784
     7  C    4.908951   5.216667   4.567233   3.252753   2.447457
     8  O    4.701804   5.359645   5.073996   3.938416   2.820963
     9  C    5.007837   5.084905   4.398210   3.372815   2.974044
    10  C    6.411973   6.516466   5.856013   4.879654   4.482429
    11  O    7.399225   7.421689   6.574110   5.446561   5.132375
    12  O    6.802128   6.981290   6.506028   5.710911   5.275616
    13  C    5.007034   4.803967   3.673528   2.256360   2.354001
    14  C    6.394310   6.122953   4.899785   3.563289   3.701965
    15  O    4.340841   3.807193   2.498610   1.367667   2.215704
    16  C    3.710677   2.444341   1.412954   2.479979   3.666946
    17  C    4.185682   2.821006   2.450127   3.786972   4.878987
    18  Cl   5.910389   4.545837   4.033973   5.187979   6.380714
    19  C    3.669699   2.443582   2.832142   4.319980   5.173059
    20  C    2.375187   1.408990   2.452970   3.843400   4.396875
    21  H    0.954476   1.910596   2.465038   2.479200   1.978651
    22  H    4.581500   4.972830   4.366014   2.988185   2.083190
    23  H    5.959890   6.243723   5.496810   4.102907   3.382600
    24  H    3.798780   4.559786   4.449594   3.477429   2.289904
    25  H    5.126216   4.914844   3.987383   3.013432   3.038171
    26  H    4.310550   4.458975   4.024010   3.293145   2.871798
    27  H    8.219343   8.262129   7.450239   6.366099   6.038880
    28  H    5.324840   5.148804   4.076523   2.779584   2.867852
    29  H    6.498313   6.191135   4.981728   3.740542   3.905080
    30  H    7.008320   6.568760   5.243963   4.063504   4.454469
    31  H    7.012601   6.907865   5.775138   4.354670   4.227652
    32  H    4.604326   3.430181   2.170798   2.674724   3.943580
    33  H    4.534300   3.421260   3.912301   5.399949   6.238865
    34  H    2.596764   2.160628   3.431737   4.723061   5.081917
                    6          7          8          9         10
     6  C    0.000000
     7  C    1.552739   0.000000
     8  O    2.354037   1.415729   0.000000
     9  C    2.627362   1.553532   2.411052   0.000000
    10  C    3.955182   2.584790   3.203505   1.529161   0.000000
    11  O    4.282966   3.020817   3.902369   2.399974   1.359493
    12  O    4.950620   3.544025   3.784553   2.433775   1.226798
    13  C    1.540140   2.652354   3.794318   3.304404   4.525178
    14  C    2.646887   3.049284   4.402404   3.458636   4.236917
    15  O    2.284177   3.338049   4.402146   3.466781   4.819612
    16  C    4.648965   5.542787   6.255646   5.170489   6.513560
    17  C    5.983725   6.830740   7.433285   6.355181   7.643257
    18  Cl   7.323446   8.147525   8.905527   7.557008   8.718283
    19  C    6.468561   7.272834   7.625355   6.840163   8.151424
    20  C    5.801506   6.569802   6.699522   6.285652   7.645612
    21  H    3.339660   4.045538   3.823118   4.328538   5.757161
    22  H    1.092559   2.157236   2.515819   3.533730   4.726343
    23  H    2.170810   1.091386   2.035980   2.189957   2.677566
    24  H    2.326963   1.909166   0.949494   2.692087   3.745837
    25  H    2.753083   2.192356   3.322571   1.088100   2.113727
    26  H    3.036331   2.190994   2.534206   1.090599   2.149163
    27  H    5.202022   3.877018   4.600463   3.219591   1.889158
    28  H    2.151689   3.481033   4.443609   4.341768   5.555465
    29  H    2.976708   2.906034   4.320328   2.849862   3.412077
    30  H    3.560857   4.120920   5.470961   4.407536   5.145032
    31  H    2.926297   3.133207   4.367041   3.848263   4.417780
    32  H    4.625434   5.511825   6.433715   5.120412   6.378682
    33  H    7.546378   8.327035   8.644964   7.840932   9.106766
    34  H    6.520961   7.224111   7.165565   6.975679   8.298387
                   11         12         13         14         15
    11  O    0.000000
    12  O    2.284870   0.000000
    13  C    4.529679   5.656360   0.000000
    14  C    3.801880   5.453529   1.537784   0.000000
    15  O    5.053748   5.829819   1.410867   2.459374   0.000000
    16  C    7.106868   7.180344   4.251850   5.230605   2.866900
    17  C    8.322190   8.179847   5.654532   6.620537   4.272816
    18  Cl   9.260607   9.265808   6.726490   7.452481   5.328412
    19  C    8.995949   8.555193   6.436198   7.558357   5.138932
    20  C    8.591774   8.006116   6.078920   7.343525   4.949953
    21  H    6.684811   6.235149   4.274295   5.663908   3.816642
    22  H    4.963943   5.693367   2.136619   3.196103   3.101949
    23  H    2.627407   3.730901   2.905801   2.828582   3.891183
    24  H    4.595646   4.245984   3.838013   4.726505   4.211777
    25  H    2.623875   3.075955   2.907954   2.927251   2.817016
    26  H    3.313744   2.567348   3.895985   4.342439   3.769929
    27  H    0.945218   2.353855   5.463041   4.655585   5.981383
    28  H    5.493678   6.690718   1.091960   2.143750   2.017481
    29  H    2.935182   4.607778   2.204136   1.087886   2.750669
    30  H    4.618984   6.347043   2.171946   1.090068   2.762663
    31  H    3.793128   5.638436   2.180074   1.090157   3.392407
    32  H    6.781560   7.152671   3.898946   4.641081   2.505993
    33  H    9.976497   9.443957   7.503315   8.601173   6.190443
    34  H    9.328757   8.553900   6.959549   8.268481   5.914373
                   16         17         18         19         20
    16  C    0.000000
    17  C    1.406953   0.000000
    18  Cl   2.715791   1.724831   0.000000
    19  C    2.437380   1.406459   2.716526   0.000000
    20  C    2.813062   2.435551   4.023402   1.407233   0.000000
    21  H    3.863301   4.619194   6.323797   4.351025   3.176410
    22  H    5.432593   6.735656   8.113099   7.136633   6.372035
    23  H    6.372768   7.708530   8.930250   8.248237   7.602816
    24  H    5.724725   6.823163   8.375227   6.891495   5.883402
    25  H    4.505352   5.719286   6.765741   6.391005   6.045481
    26  H    4.894631   5.935997   7.242939   6.233141   5.582820
    27  H    7.953957   9.129343  10.019858   9.792291   9.398300
    28  H    4.622187   5.977071   7.013714   6.744144   6.391505
    29  H    5.258403   6.605925   7.396967   7.547447   7.367421
    30  H    5.313812   6.651947   7.262996   7.726306   7.688129
    31  H    6.231805   7.632978   8.516965   8.509980   8.192611
    32  H    1.080383   2.148089   2.842320   3.407923   3.893285
    33  H    3.415744   2.159894   2.864453   1.080159   2.161114
    34  H    3.893539   3.412972   4.874469   2.158120   1.080481
                   21         22         23         24         25
    21  H    0.000000
    22  H    3.659274   0.000000
    23  H    5.075260   2.488589   0.000000
    24  H    2.931901   2.519875   2.782801   0.000000
    25  H    4.530077   3.793421   2.711746   3.495108   0.000000
    26  H    3.742152   3.927494   3.066264   2.485123   1.730585
    27  H    7.521753   5.840051   3.427052   5.331988   3.479666
    28  H    4.608439   2.247722   3.634615   4.434570   3.998416
    29  H    5.806260   3.739714   2.714577   4.702192   2.200747
    30  H    6.353581   4.056987   3.909501   5.740326   3.713414
    31  H    6.200790   3.168694   2.564773   4.849230   3.573603
    32  H    4.596165   5.449466   6.202897   6.042257   4.290824
    33  H    5.297860   8.204600   9.310401   7.892278   7.387944
    34  H    3.530012   7.007505   8.286008   6.290483   6.857573
                   26         27         28         29         30
    26  H    0.000000
    27  H    4.017435   0.000000
    28  H    4.889060   6.411181   0.000000
    29  H    3.795084   3.773437   3.073219   0.000000
    30  H    5.246300   5.410894   2.442550   1.750568   0.000000
    31  H    4.817366   4.571322   2.517724   1.760801   1.757044
    32  H    5.055784   7.621663   4.273214   4.668807   4.553883
    33  H    7.191783  10.747648   7.792024   8.569890   8.728794
    34  H    6.178902  10.110022   7.250277   8.291176   8.671493
                   31         32         33         34
    31  H    0.000000
    32  H    5.692341   0.000000
    33  H    9.567656   4.297131   0.000000
    34  H    9.067800   4.973732   2.484919   0.000000
 Stoichiometry    C13H14ClNO5
 Framework group  C1[X(C13H14ClNO5)]
 Deg. of freedom    96
 Full point group                 C1      NOp   1
 Largest Abelian subgroup         C1      NOp   1
 Largest concise Abelian subgroup C1      NOp   1
                         Standard orientation:                         
 ---------------------------------------------------------------------
 Center     Atomic      Atomic             Coordinates (Angstroms)
 Number     Number       Type             X           Y           Z
 ---------------------------------------------------------------------
      1          8           0       -1.394569    2.859783   -0.247601
      2          6           0       -2.136985    1.734636   -0.029103
      3          6           0       -1.647122    0.431024   -0.325316
      4          6           0       -0.292792    0.166891   -0.885985
      5          7           0        0.595565    1.062569   -1.052583
      6          6           0        1.789132    0.424132   -1.554886
      7          6           0        2.916142    0.523952   -0.491456
      8          8           0        3.207049    1.906450   -0.400011
      9          6           0        2.547838    0.003083    0.925056
     10          6           0        3.757028   -0.373710    1.781923
     11          8           0        4.468582   -1.399956    1.244587
     12          8           0        4.021602    0.157306    2.855728
     13          6           0        1.314769   -0.978314   -1.979334
     14          6           0        2.251617   -2.175082   -1.745153
     15          8           0        0.098003   -1.085243   -1.273223
     16          6           0       -2.477339   -0.685384   -0.078719
     17          6           0       -3.768581   -0.515472    0.453580
     18         17           0       -4.765633   -1.891720    0.748314
     19          6           0       -4.246299    0.774700    0.745757
     20          6           0       -3.431189    1.896068    0.504027
     21          1           0       -0.543737    2.617401   -0.605874
     22          1           0        2.129283    0.938372   -2.456851
     23          1           0        3.807355    0.017712   -0.866399
     24          1           0        2.367332    2.349295   -0.382628
     25          1           0        1.924000   -0.886236    0.862593
     26          1           0        1.945536    0.737384    1.461190
     27          1           0        5.192742   -1.601047    1.817816
     28          1           0        1.060868   -0.950939   -3.041013
     29          1           0        2.475484   -2.341355   -0.693615
     30          1           0        1.797143   -3.091161   -2.122646
     31          1           0        3.196711   -2.039343   -2.271284
     32          1           0       -2.129761   -1.685223   -0.294911
     33          1           0       -5.237762    0.904223    1.154374
     34          1           0       -3.801035    2.886311    0.727797
 ---------------------------------------------------------------------
 Rotational constants (GHZ):      0.4841045      0.1531495      0.1459240
 Standard basis: 6-31+G(d,p) (6D, 7F)
 There are   454 symmetry adapted basis functions of A   symmetry.
 Integral buffers will be    131072 words long.
 Raffenetti 2 integral format.
 Two-electron integral symmetry is turned on.
   454 basis functions,   762 primitive gaussians,   454 cartesian basis functions
    78 alpha electrons       78 beta electrons
       nuclear repulsion energy      1686.3482626082 Hartrees.
 NAtoms=   34 NActive=   34 NUniq=   34 SFac= 1.00D+00 NAtFMM=   50 NAOKFM=F Big=F
 Using the following non-standard input for PCM:
 radii=UA0
 --- end of non-standard input.
 ------------------------------------------------------------------------------
 United Atom Topological Model (UA0  parameters set).
  Nord Group  Hybr  Charge Alpha Radius          Bonded to
    1   OH    *     0.00   1.10  1.850   C2   [s]
    2   C     *     0.00   1.10  1.925   O1   [s]  C3   [s]  C20  [s]
    3   C     *     0.00   1.10  1.925   C2   [s]  C4   [s]  C16  [s]
    4   C     *     0.00   1.10  1.925   C3   [s]  N5   [d]  O15  [s]
    5   N     *     0.00   1.10  1.830   C4   [d]  C6   [s]
    6   CH    *     0.00   1.10  2.125   N5   [s]  C7   [s]  C13  [s]
    7   CH    *     0.00   1.10  2.125   C6   [s]  O8   [s]  C9   [s]
    8   OH    *     0.00   1.10  1.850   C7   [s]
    9   CH2   *     0.00   1.10  2.325   C7   [s]  C10  [s]
   10   C     *     0.00   1.10  1.925   C9   [s]  O11  [s]  O12  [d]
   11   OH    *     0.00   1.10  1.850   C10  [s]
   12   O     *     0.00   1.10  1.750   C10  [d]
   13   CH    *     0.00   1.10  2.125   C6   [s]  C14  [s]  O15  [s]
   14   CH3   *     0.00   1.10  2.525   C13  [s]
   15   O     *     0.00   1.10  1.750   C4   [s]  C13  [s]
   16   CH    *     0.00   1.10  2.125   C3   [s]  C17  [s]
   17   C     *     0.00   1.10  1.925   C16  [s] Cl18  [s]  C19  [s]
   18  Cl     *     0.00   1.10  1.973   C17  [s]
   19   CH    *     0.00   1.10  2.125   C17  [s]  C20  [s]
   20   CH    *     0.00   1.10  2.125   C2   [s]  C19  [s]
 ------------------------------------------------------------------------------
 Polarizable Continuum Model (PCM)
 =================================
 Model                : PCM.
 Atomic radii         : UA0 (Simple United Atom Topological Model).
 Polarization charges : Total charges.
 Charge compensation  : None.
 Solution method      : Matrix inversion.
 Cavity type          : Scaled VdW (van der Waals Surface) (Alpha=1.100).
 Cavity algorithm     : GePol (No added spheres)
                        Default sphere list used, NSphG=   20.
                        Lebedev-Laikov grids with approx.  5.0 points / Ang**2.
                        Smoothing algorithm: Karplus/York (Gamma=1.0000).
                        Polarization charges: spherical gaussians, with
                                              point-specific exponents (IZeta= 3).
                        Self-potential: point-specific (ISelfS= 7).
                        Self-field    : sphere-specific E.n sum rule (ISelfD= 2).
 1st derivatives      : Analytical E(r).r(x)/FMM algorithm (CHGder, D1EAlg=3).
                        Cavity 1st derivative terms included.
 Solvent              : Methanol, Eps=  32.613000 Eps(inf)=   1.765709
 ------------------------------------------------------------------------------
 Spheres list:
 ISph  on   Nord    Re0     Alpha      Xe            Ye            Ze
    1   O      1    1.850   1.100     -1.394569      2.859783     -0.247601
    2   C      2    1.925   1.100     -2.136985      1.734636     -0.029103
    3   C      3    1.925   1.100     -1.647122      0.431024     -0.325316
    4   C      4    1.925   1.100     -0.292792      0.166891     -0.885985
    5   N      5    1.830   1.100      0.595565      1.062569     -1.052583
    6   C      6    2.125   1.100      1.789132      0.424132     -1.554886
    7   C      7    2.125   1.100      2.916142      0.523952     -0.491456
    8   O      8    1.850   1.100      3.207049      1.906450     -0.400011
    9   C      9    2.325   1.100      2.547838      0.003083      0.925056
   10   C     10    1.925   1.100      3.757028     -0.373710      1.781923
   11   O     11    1.850   1.100      4.468582     -1.399956      1.244587
   12   O     12    1.750   1.100      4.021602      0.157306      2.855728
   13   C     13    2.125   1.100      1.314769     -0.978314     -1.979334
   14   C     14    2.525   1.100      2.251617     -2.175082     -1.745153
   15   O     15    1.750   1.100      0.098003     -1.085243     -1.273223
   16   C     16    2.125   1.100     -2.477339     -0.685384     -0.078719
   17   C     17    1.925   1.100     -3.768581     -0.515472      0.453580
   18  Cl     18    1.973   1.100     -4.765633     -1.891720      0.748314
   19   C     19    2.125   1.100     -4.246299      0.774700      0.745757
   20   C     20    2.125   1.100     -3.431189      1.896068      0.504027
 ------------------------------------------------------------------------------
 One-electron integrals computed using PRISM.
 NBasis=   454 RedAO= T  NBF=   454
 NBsUse=   453 1.00D-06 NBFU=   453
 Harris functional with IExCor= 1009 diagonalized for initial guess.
 ExpMin= 4.38D-02 ExpMax= 2.52D+04 ExpMxC= 3.78D+03 IAcc=3 IRadAn=         5 AccDes= 0.00D+00
 HarFok:  IExCor= 1009 AccDes= 0.00D+00 IRadAn=         5 IDoV= 1
 ScaDFX=  1.000000  1.000000  1.000000  1.000000
 FoFCou: FMM=F IPFlag=           0 FMFlag=      100000 FMFlg1=           0
         NFxFlg=           0 DoJE=T BraDBF=F KetDBF=T FulRan=T
         Omega=  0.000000  0.000000  1.000000  0.000000  0.000000 ICntrl=     500 IOpCl=  0
         NMat0=    1 NMatS0=    1 NMatT0=    0 NMatD0=    1 NMtDS0=    0 NMtDT0=    0
         I1Cent=           4 NGrid=           0.
 Petite list used in FoFCou.
 Initial guess orbital symmetries:
       Occupied  (A) (A) (A) (A) (A) (A) (A) (A) (A) (A) (A) (A)
                 (A) (A) (A) (A) (A) (A) (A) (A) (A) (A) (A) (A)
                 (A) (A) (A) (A) (A) (A) (A) (A) (A) (A) (A) (A)
                 (A) (A) (A) (A) (A) (A) (A) (A) (A) (A) (A) (A)
                 (A) (A) (A) (A) (A) (A) (A) (A) (A) (A) (A) (A)
                 (A) (A) (A) (A) (A) (A) (A) (A) (A) (A) (A) (A)
                 (A) (A) (A) (A) (A) (A)
       Virtual   (A) (A) (A) (A) (A) (A) (A) (A) (A) (A) (A) (A)
                 (A) (A) (A) (A) (A) (A) (A) (A) (A) (A) (A) (A)
                 (A) (A) (A) (A) (A) (A) (A) (A) (A) (A) (A) (A)
                 (A) (A) (A) (A) (A) (A) (A) (A) (A) (A) (A) (A)
                 (A) (A) (A) (A) (A) (A) (A) (A) (A) (A) (A) (A)
                 (A) (A) (A) (A) (A) (A) (A) (A) (A) (A) (A) (A)
                 (A) (A) (A) (A) (A) (A) (A) (A) (A) (A) (A) (A)
                 (A) (A) (A) (A) (A) (A) (A) (A) (A) (A) (A) (A)
                 (A) (A) (A) (A) (A) (A) (A) (A) (A) (A) (A) (A)
                 (A) (A) (A) (A) (A) (A) (A) (A) (A) (A) (A) (A)
                 (A) (A) (A) (A) (A) (A) (A) (A) (A) (A) (A) (A)
                 (A) (A) (A) (A) (A) (A) (A) (A) (A) (A) (A) (A)
                 (A) (A) (A) (A) (A) (A) (A) (A) (A) (A) (A) (A)
                 (A) (A) (A) (A) (A) (A) (A) (A) (A) (A) (A) (A)
                 (A) (A) (A) (A) (A) (A) (A) (A) (A) (A) (A) (A)
                 (A) (A) (A) (A) (A) (A) (A) (A) (A) (A) (A) (A)
                 (A) (A) (A) (A) (A) (A) (A) (A) (A) (A) (A) (A)
                 (A) (A) (A) (A) (A) (A) (A) (A) (A) (A) (A) (A)
                 (A) (A) (A) (A) (A) (A) (A) (A) (A) (A) (A) (A)
                 (A) (A) (A) (A) (A) (A) (A) (A) (A) (A) (A) (A)
                 (A) (A) (A) (A) (A) (A) (A) (A) (A) (A) (A) (A)
                 (A) (A) (A) (A) (A) (A) (A) (A) (A) (A) (A) (A)
                 (A) (A) (A) (A) (A) (A) (A) (A) (A) (A) (A) (A)
                 (A) (A) (A) (A) (A) (A) (A) (A) (A) (A) (A) (A)
                 (A) (A) (A) (A) (A) (A) (A) (A) (A) (A) (A) (A)
                 (A) (A) (A) (A) (A) (A) (A) (A) (A) (A) (A) (A)
                 (A) (A) (A) (A) (A) (A) (A) (A) (A) (A) (A) (A)
                 (A) (A) (A) (A) (A) (A) (A) (A) (A) (A) (A) (A)
                 (A) (A) (A) (A) (A) (A) (A) (A) (A) (A) (A) (A)
                 (A) (A) (A) (A) (A) (A) (A) (A) (A) (A) (A) (A)
                 (A) (A) (A) (A) (A) (A) (A) (A) (A) (A) (A) (A)
                 (A) (A) (A)
 The electronic state of the initial guess is 1-A.
 Requested convergence on RMS density matrix=1.00D-08 within 128 cycles.
 Requested convergence on MAX density matrix=1.00D-06.
 Requested convergence on             energy=1.00D-06.
 No special actions if energy rises.
 Error on total polarization charges =  0.01520
 SCF Done:  E(RM062X) =  -1394.55976836     A.U. after   16 cycles
             Convg  =    0.4061D-08             -V/T =  2.0067

 **********************************************************************

            Population analysis using the SCF density.

 **********************************************************************

 Orbital symmetries:
       Occupied  (A) (A) (A) (A) (A) (A) (A) (A) (A) (A) (A) (A)
                 (A) (A) (A) (A) (A) (A) (A) (A) (A) (A) (A) (A)
                 (A) (A) (A) (A) (A) (A) (A) (A) (A) (A) (A) (A)
                 (A) (A) (A) (A) (A) (A) (A) (A) (A) (A) (A) (A)
                 (A) (A) (A) (A) (A) (A) (A) (A) (A) (A) (A) (A)
                 (A) (A) (A) (A) (A) (A) (A) (A) (A) (A) (A) (A)
                 (A) (A) (A) (A) (A) (A)
       Virtual   (A) (A) (A) (A) (A) (A) (A) (A) (A) (A) (A) (A)
                 (A) (A) (A) (A) (A) (A) (A) (A) (A) (A) (A) (A)
                 (A) (A) (A) (A) (A) (A) (A) (A) (A) (A) (A) (A)
                 (A) (A) (A) (A) (A) (A) (A) (A) (A) (A) (A) (A)
                 (A) (A) (A) (A) (A) (A) (A) (A) (A) (A) (A) (A)
                 (A) (A) (A) (A) (A) (A) (A) (A) (A) (A) (A) (A)
                 (A) (A) (A) (A) (A) (A) (A) (A) (A) (A) (A) (A)
                 (A) (A) (A) (A) (A) (A) (A) (A) (A) (A) (A) (A)
                 (A) (A) (A) (A) (A) (A) (A) (A) (A) (A) (A) (A)
                 (A) (A) (A) (A) (A) (A) (A) (A) (A) (A) (A) (A)
                 (A) (A) (A) (A) (A) (A) (A) (A) (A) (A) (A) (A)
                 (A) (A) (A) (A) (A) (A) (A) (A) (A) (A) (A) (A)
                 (A) (A) (A) (A) (A) (A) (A) (A) (A) (A) (A) (A)
                 (A) (A) (A) (A) (A) (A) (A) (A) (A) (A) (A) (A)
                 (A) (A) (A) (A) (A) (A) (A) (A) (A) (A) (A) (A)
                 (A) (A) (A) (A) (A) (A) (A) (A) (A) (A) (A) (A)
                 (A) (A) (A) (A) (A) (A) (A) (A) (A) (A) (A) (A)
                 (A) (A) (A) (A) (A) (A) (A) (A) (A) (A) (A) (A)
                 (A) (A) (A) (A) (A) (A) (A) (A) (A) (A) (A) (A)
                 (A) (A) (A) (A) (A) (A) (A) (A) (A) (A) (A) (A)
                 (A) (A) (A) (A) (A) (A) (A) (A) (A) (A) (A) (A)
                 (A) (A) (A) (A) (A) (A) (A) (A) (A) (A) (A) (A)
                 (A) (A) (A) (A) (A) (A) (A) (A) (A) (A) (A) (A)
                 (A) (A) (A) (A) (A) (A) (A) (A) (A) (A) (A) (A)
                 (A) (A) (A) (A) (A) (A) (A) (A) (A) (A) (A) (A)
                 (A) (A) (A) (A) (A) (A) (A) (A) (A) (A) (A) (A)
                 (A) (A) (A) (A) (A) (A) (A) (A) (A) (A) (A) (A)
                 (A) (A) (A) (A) (A) (A) (A) (A) (A) (A) (A) (A)
                 (A) (A) (A) (A) (A) (A) (A) (A) (A) (A) (A) (A)
                 (A) (A) (A) (A) (A) (A) (A) (A) (A) (A) (A) (A)
                 (A) (A) (A) (A) (A) (A) (A) (A) (A) (A) (A) (A)
                 (A) (A) (A)
 The electronic state is 1-A.
 Alpha  occ. eigenvalues -- -102.68306 -19.70274 -19.70066 -19.68355 -19.65779
 Alpha  occ. eigenvalues --  -19.65196 -14.77621 -10.71039 -10.68026 -10.65023
 Alpha  occ. eigenvalues --  -10.62719 -10.62392 -10.62355 -10.60081 -10.59618
 Alpha  occ. eigenvalues --  -10.58944 -10.58696 -10.57653 -10.57335 -10.55490
 Alpha  occ. eigenvalues --   -9.82988  -7.55390  -7.54729  -7.54719  -1.24569
 Alpha  occ. eigenvalues --   -1.24283  -1.19844  -1.16624  -1.15094  -1.04579
 Alpha  occ. eigenvalues --   -1.00957  -0.95505  -0.92238  -0.88575  -0.86967
 Alpha  occ. eigenvalues --   -0.83681  -0.81379  -0.77018  -0.73595  -0.72057
 Alpha  occ. eigenvalues --   -0.70346  -0.69334  -0.67715  -0.63600  -0.61730
 Alpha  occ. eigenvalues --   -0.60967  -0.59139  -0.58401  -0.57419  -0.56024
 Alpha  occ. eigenvalues --   -0.55609  -0.54498  -0.53633  -0.53178  -0.51729
 Alpha  occ. eigenvalues --   -0.51158  -0.50506  -0.49265  -0.48851  -0.48258
 Alpha  occ. eigenvalues --   -0.47517  -0.47031  -0.46282  -0.45730  -0.45437
 Alpha  occ. eigenvalues --   -0.44487  -0.43781  -0.43317  -0.41071  -0.39951
 Alpha  occ. eigenvalues --   -0.39073  -0.38860  -0.37650  -0.36881  -0.36580
 Alpha  occ. eigenvalues --   -0.34119  -0.31850  -0.28760
 Alpha virt. eigenvalues --   -0.03451   0.00416   0.00617   0.01744   0.02121
 Alpha virt. eigenvalues --    0.02298   0.02700   0.03373   0.03468   0.04254
 Alpha virt. eigenvalues --    0.04618   0.04914   0.05501   0.05546   0.06128
 Alpha virt. eigenvalues --    0.06309   0.06897   0.07216   0.07661   0.08142
 Alpha virt. eigenvalues --    0.08399   0.08845   0.09211   0.09562   0.10172
 Alpha virt. eigenvalues --    0.10514   0.10995   0.11343   0.12162   0.12441
 Alpha virt. eigenvalues --    0.13385   0.13557   0.13703   0.14192   0.14922
 Alpha virt. eigenvalues --    0.15063   0.15422   0.15951   0.16270   0.16504
 Alpha virt. eigenvalues --    0.16938   0.17040   0.17214   0.17928   0.18215
 Alpha virt. eigenvalues --    0.18661   0.19030   0.19320   0.20103   0.20188
 Alpha virt. eigenvalues --    0.20473   0.20744   0.21038   0.21613   0.21966
 Alpha virt. eigenvalues --    0.22467   0.22740   0.23093   0.23322   0.23781
 Alpha virt. eigenvalues --    0.23863   0.24310   0.25025   0.25065   0.25507
 Alpha virt. eigenvalues --    0.26164   0.26306   0.26412   0.26732   0.26925
 Alpha virt. eigenvalues --    0.27517   0.27815   0.28048   0.28464   0.29328
 Alpha virt. eigenvalues --    0.29773   0.29936   0.30349   0.30744   0.31290
 Alpha virt. eigenvalues --    0.31574   0.31950   0.32443   0.32694   0.33239
 Alpha virt. eigenvalues --    0.33552   0.33907   0.34064   0.35124   0.35299
 Alpha virt. eigenvalues --    0.36077   0.36469   0.36817   0.37528   0.38497
 Alpha virt. eigenvalues --    0.39174   0.39332   0.39955   0.40612   0.41086
 Alpha virt. eigenvalues --    0.41505   0.42217   0.42445   0.42947   0.43542
 Alpha virt. eigenvalues --    0.44004   0.45105   0.46038   0.47137   0.47581
 Alpha virt. eigenvalues --    0.49420   0.50137   0.51155   0.52833   0.53245
 Alpha virt. eigenvalues --    0.54356   0.55441   0.59170   0.60113   0.64498
 Alpha virt. eigenvalues --    0.67036   0.68144   0.69086   0.70029   0.71106
 Alpha virt. eigenvalues --    0.71592   0.72168   0.72352   0.74213   0.74584
 Alpha virt. eigenvalues --    0.75083   0.75497   0.76205   0.77648   0.78100
 Alpha virt. eigenvalues --    0.79432   0.80550   0.80920   0.81940   0.81984
 Alpha virt. eigenvalues --    0.82348   0.82930   0.84179   0.84951   0.86345
 Alpha virt. eigenvalues --    0.86929   0.88697   0.89207   0.91361   0.92628
 Alpha virt. eigenvalues --    0.93164   0.93603   0.93794   0.94668   0.97532
 Alpha virt. eigenvalues --    0.97768   0.98905   0.99346   1.00125   1.03070
 Alpha virt. eigenvalues --    1.03687   1.04192   1.05759   1.06282   1.06602
 Alpha virt. eigenvalues --    1.08581   1.09789   1.10075   1.11719   1.12693
 Alpha virt. eigenvalues --    1.12953   1.14463   1.15310   1.16543   1.17218
 Alpha virt. eigenvalues --    1.17643   1.19117   1.19487   1.20668   1.20982
 Alpha virt. eigenvalues --    1.22139   1.23305   1.24161   1.25305   1.26493
 Alpha virt. eigenvalues --    1.27005   1.27531   1.27992   1.29455   1.30012
 Alpha virt. eigenvalues --    1.31453   1.32058   1.33957   1.34773   1.35861
 Alpha virt. eigenvalues --    1.36527   1.37096   1.38156   1.39372   1.39887
 Alpha virt. eigenvalues --    1.40511   1.41159   1.42248   1.42693   1.43724
 Alpha virt. eigenvalues --    1.43933   1.44479   1.44625   1.45496   1.46314
 Alpha virt. eigenvalues --    1.47539   1.48712   1.50048   1.51385   1.53688
 Alpha virt. eigenvalues --    1.54552   1.56795   1.57885   1.58256   1.59748
 Alpha virt. eigenvalues --    1.61131   1.62274   1.63570   1.64164   1.65454
 Alpha virt. eigenvalues --    1.65622   1.67648   1.69947   1.73586   1.74720
 Alpha virt. eigenvalues --    1.76131   1.77333   1.78331   1.79358   1.80573
 Alpha virt. eigenvalues --    1.81447   1.82780   1.84939   1.85163   1.86582
 Alpha virt. eigenvalues --    1.86926   1.88739   1.90237   1.91120   1.91766
 Alpha virt. eigenvalues --    1.93579   1.95372   1.96275   1.97047   1.97734
 Alpha virt. eigenvalues --    1.99725   2.00197   2.02350   2.02937   2.04757
 Alpha virt. eigenvalues --    2.05734   2.05807   2.07714   2.08477   2.09846
 Alpha virt. eigenvalues --    2.10991   2.11232   2.12730   2.15345   2.15718
 Alpha virt. eigenvalues --    2.17767   2.18089   2.18960   2.20906   2.22183
 Alpha virt. eigenvalues --    2.23736   2.25020   2.25905   2.27653   2.28462
 Alpha virt. eigenvalues --    2.29648   2.33454   2.34080   2.37353   2.37911
 Alpha virt. eigenvalues --    2.38370   2.39441   2.40865   2.42273   2.42819
 Alpha virt. eigenvalues --    2.43602   2.45364   2.47076   2.47547   2.48989
 Alpha virt. eigenvalues --    2.51304   2.52726   2.52827   2.55157   2.55444
 Alpha virt. eigenvalues --    2.56449   2.57301   2.58242   2.59493   2.60191
 Alpha virt. eigenvalues --    2.60878   2.61881   2.63515   2.64175   2.67249
 Alpha virt. eigenvalues --    2.68181   2.68877   2.69829   2.69941   2.72476
 Alpha virt. eigenvalues --    2.72758   2.72962   2.74336   2.75275   2.75791
 Alpha virt. eigenvalues --    2.76702   2.78319   2.80375   2.81211   2.83491
 Alpha virt. eigenvalues --    2.84137   2.85396   2.89093   2.90980   2.91579
 Alpha virt. eigenvalues --    2.93499   2.96713   2.97104   3.00938   3.02741
 Alpha virt. eigenvalues --    3.03660   3.07145   3.08217   3.09016   3.13168
 Alpha virt. eigenvalues --    3.13572   3.15429   3.20737   3.21811   3.25047
 Alpha virt. eigenvalues --    3.26722   3.32419   3.37298   3.38426   3.40569
 Alpha virt. eigenvalues --    3.43945   3.45435   3.47093   3.48818   3.52482
 Alpha virt. eigenvalues --    3.52782   3.58888   3.64554   3.65882   3.75878
 Alpha virt. eigenvalues --    4.27360   4.29835   4.30953   4.32291   4.34808
 Alpha virt. eigenvalues --    4.36792   4.37612   4.41175   4.47535   4.50235
 Alpha virt. eigenvalues --    4.53206   4.53882   4.59177   4.60984   4.66144
 Alpha virt. eigenvalues --    4.75147   4.77842   4.86775   4.88579   4.95816
          Condensed to atoms (all electrons):
              1          2          3          4          5          6
     1  O    8.419261   0.430607   0.115882  -0.071620   0.011961   0.010091
     2  C    0.430607  20.155005  -5.408939   2.091870   0.052681  -0.297585
     3  C    0.115882  -5.408939  15.076081  -1.626834  -0.467073   0.692921
     4  C   -0.071620   2.091870  -1.626834   9.515642   0.320591  -0.609921
     5  N    0.011961   0.052681  -0.467073   0.320591   7.314454  -0.084683
     6  C    0.010091  -0.297585   0.692921  -0.609921  -0.084683  10.218880
     7  C    0.007063  -0.064342   0.089858  -0.057552  -0.069890  -1.602723
     8  O    0.000667   0.019862  -0.013173   0.043405  -0.026733  -0.027610
     9  C   -0.010580   0.024803  -0.126319  -0.235999   0.142268   0.355493
    10  C   -0.003783   0.044760  -0.061710  -0.412717   0.046187  -0.009252
    11  O    0.000001   0.000936   0.001625  -0.000976  -0.002239  -0.015150
    12  O   -0.000007   0.000108   0.001329  -0.004294   0.000210  -0.010166
    13  C   -0.004489   0.433581  -0.739212  -0.116940   0.240871  -2.784138
    14  C   -0.000360   0.034061  -0.049487  -0.112636  -0.051535   0.187421
    15  O   -0.002989  -0.008982  -0.256557   0.400444  -0.145524  -0.283063
    16  C    0.121385  -7.652566   2.509835  -3.618037  -0.207378   0.108784
    17  C   -0.035871   0.177952  -2.782190   0.952260  -0.007219  -0.338688
    18  Cl  -0.000567  -0.005604  -0.022900   0.006231  -0.000419   0.003370
    19  C    0.056473   0.702007  -0.297813   0.170088   0.000185  -0.045018
    20  C   -0.683290  -4.587275  -0.302559  -0.963721   0.209898   0.236979
    21  H    0.189711   0.067655  -0.167606   0.023294   0.063903   0.012702
    22  H    0.000353  -0.002635  -0.010723   0.030133  -0.040471   0.329225
    23  H    0.000004   0.002849  -0.000234  -0.008586   0.003186   0.021823
    24  H   -0.000361  -0.000303  -0.000036  -0.006297   0.026593  -0.061012
    25  H    0.000052  -0.015562  -0.038356  -0.034413  -0.006044  -0.002887
    26  H   -0.000132   0.021621   0.013634  -0.002881   0.000300   0.046375
    27  H    0.000000  -0.000005   0.000024   0.000392   0.000046   0.000883
    28  H    0.000050  -0.007347  -0.017812   0.009584   0.008687  -0.030872
    29  H    0.000000  -0.001738  -0.005991  -0.011093   0.000615  -0.075686
    30  H   -0.000001   0.000850   0.003515   0.016303  -0.001659   0.048839
    31  H    0.000000  -0.000057  -0.000602  -0.001614  -0.002602   0.051135
    32  H   -0.000403   0.047142   0.020081   0.061168   0.002174   0.000701
    33  H   -0.000428  -0.057513   0.004141  -0.009067   0.000040   0.000025
    34  H   -0.003506   0.029128   0.008425   0.000657   0.000473   0.000130
              7          8          9         10         11         12
     1  O    0.007063   0.000667  -0.010580  -0.003783   0.000001  -0.000007
     2  C   -0.064342   0.019862   0.024803   0.044760   0.000936   0.000108
     3  C    0.089858  -0.013173  -0.126319  -0.061710   0.001625   0.001329
     4  C   -0.057552   0.043405  -0.235999  -0.412717  -0.000976  -0.004294
     5  N   -0.069890  -0.026733   0.142268   0.046187  -0.002239   0.000210
     6  C   -1.602723  -0.027610   0.355493  -0.009252  -0.015150  -0.010166
     7  C    7.879260   0.246936  -0.714215  -0.106843   0.032281  -0.018439
     8  O    0.246936   8.256285  -0.189921   0.028803   0.002458  -0.000883
     9  C   -0.714215  -0.189921   7.712436  -1.222067  -0.233137  -0.093973
    10  C   -0.106843   0.028803  -1.222067   6.715714   0.265915   0.531742
    11  O    0.032281   0.002458  -0.233137   0.265915   8.331624  -0.144748
    12  O   -0.018439  -0.000883  -0.093973   0.531742  -0.144748   8.222385
    13  C    0.007705  -0.009062   0.219652  -0.039213  -0.006189   0.002157
    14  C   -0.304338   0.003261  -0.017045  -0.030993  -0.000234  -0.002608
    15  O    0.182362  -0.006600  -0.019956   0.021899  -0.001170   0.000076
    16  C    0.199379  -0.015593  -0.111980  -0.080177  -0.001455   0.000206
    17  C    0.015361  -0.001930  -0.009286  -0.014069  -0.000443  -0.000400
    18  Cl   0.000186  -0.000003  -0.000189  -0.000066  -0.000001   0.000000
    19  C    0.015442   0.000403  -0.006430  -0.000264  -0.000001   0.000019
    20  C   -0.019444  -0.000366   0.074648   0.030550   0.000117   0.000259
    21  H   -0.008020  -0.000443   0.001139   0.000027   0.000000   0.000001
    22  H   -0.034886  -0.004288   0.017483  -0.003890  -0.000148   0.000008
    23  H    0.435060  -0.043523  -0.135833   0.034322   0.009161   0.001731
    24  H    0.063858   0.263755  -0.048389   0.012402   0.000199   0.000477
    25  H   -0.055779   0.008150   0.369785   0.017096  -0.000967  -0.000154
    26  H   -0.019309  -0.001348   0.336264  -0.010025   0.009723  -0.000332
    27  H   -0.003415   0.000010   0.053838  -0.031843   0.240876   0.002865
    28  H    0.035337  -0.000760  -0.001452   0.002180  -0.000015   0.000000
    29  H    0.083179  -0.000758  -0.021818   0.005308  -0.001545  -0.000120
    30  H   -0.020599   0.000066   0.001471  -0.001207   0.000145   0.000001
    31  H   -0.034162   0.000043   0.003789   0.000024   0.000687   0.000014
    32  H   -0.000178   0.000002   0.001969   0.000201   0.000000   0.000000
    33  H   -0.000011   0.000000  -0.000012  -0.000001   0.000000   0.000000
    34  H   -0.000015   0.000000   0.000023   0.000001   0.000000   0.000000
             13         14         15         16         17         18
     1  O   -0.004489  -0.000360  -0.002989   0.121385  -0.035871  -0.000567
     2  C    0.433581   0.034061  -0.008982  -7.652566   0.177952  -0.005604
     3  C   -0.739212  -0.049487  -0.256557   2.509835  -2.782190  -0.022900
     4  C   -0.116940  -0.112636   0.400444  -3.618037   0.952260   0.006231
     5  N    0.240871  -0.051535  -0.145524  -0.207378  -0.007219  -0.000419
     6  C   -2.784138   0.187421  -0.283063   0.108784  -0.338688   0.003370
     7  C    0.007705  -0.304338   0.182362   0.199379   0.015361   0.000186
     8  O   -0.009062   0.003261  -0.006600  -0.015593  -0.001930  -0.000003
     9  C    0.219652  -0.017045  -0.019956  -0.111980  -0.009286  -0.000189
    10  C   -0.039213  -0.030993   0.021899  -0.080177  -0.014069  -0.000066
    11  O   -0.006189  -0.000234  -0.001170  -0.001455  -0.000443  -0.000001
    12  O    0.002157  -0.002608   0.000076   0.000206  -0.000400   0.000000
    13  C    8.925643  -0.001375  -0.031209  -0.767836   0.446810  -0.004311
    14  C   -0.001375   5.819374  -0.120238  -0.104542   0.043025  -0.000343
    15  O   -0.031209  -0.120238   8.447432   0.059812   0.059943  -0.000569
    16  C   -0.767836  -0.104542   0.059812  24.913259  -5.789224  -0.118077
    17  C    0.446810   0.043025   0.059943  -5.789224  11.955936  -0.092047
    18  Cl  -0.004311  -0.000343  -0.000569  -0.118077  -0.092047  17.022671
    19  C    0.037599   0.005072   0.000474  -3.173110   1.546258  -0.093937
    20  C   -0.189123  -0.023964   0.019220   0.046358  -0.182319   0.083925
    21  H    0.002414   0.000742   0.001963  -0.036503   0.007269   0.000018
    22  H    0.014140  -0.012093   0.013000   0.004134   0.000927  -0.000001
    23  H   -0.050933   0.014652  -0.005262  -0.004903  -0.000388   0.000000
    24  H    0.011395  -0.002183  -0.000755  -0.003085  -0.000448   0.000000
    25  H    0.025393  -0.005154   0.013029   0.026964   0.012360   0.000011
    26  H   -0.037416   0.000904  -0.004104  -0.019921  -0.007519  -0.000002
    27  H   -0.000563   0.000402  -0.000005   0.000011  -0.000002   0.000000
    28  H    0.360764  -0.058084  -0.041439   0.024397   0.003203   0.000022
    29  H    0.002731   0.366980   0.006471   0.010713   0.001285   0.000006
    30  H   -0.101918   0.433760  -0.007781  -0.005476  -0.001474   0.000000
    31  H   -0.110500   0.448524   0.006639  -0.000391  -0.000008   0.000000
    32  H    0.014330  -0.000234   0.007093   0.121244   0.023635  -0.002793
    33  H   -0.000090   0.000000   0.000005   0.144753   0.086228  -0.008112
    34  H    0.000050   0.000001   0.000016  -0.000646  -0.002040   0.000919
             19         20         21         22         23         24
     1  O    0.056473  -0.683290   0.189711   0.000353   0.000004  -0.000361
     2  C    0.702007  -4.587275   0.067655  -0.002635   0.002849  -0.000303
     3  C   -0.297813  -0.302559  -0.167606  -0.010723  -0.000234  -0.000036
     4  C    0.170088  -0.963721   0.023294   0.030133  -0.008586  -0.006297
     5  N    0.000185   0.209898   0.063903  -0.040471   0.003186   0.026593
     6  C   -0.045018   0.236979   0.012702   0.329225   0.021823  -0.061012
     7  C    0.015442  -0.019444  -0.008020  -0.034886   0.435060   0.063858
     8  O    0.000403  -0.000366  -0.000443  -0.004288  -0.043523   0.263755
     9  C   -0.006430   0.074648   0.001139   0.017483  -0.135833  -0.048389
    10  C   -0.000264   0.030550   0.000027  -0.003890   0.034322   0.012402
    11  O   -0.000001   0.000117   0.000000  -0.000148   0.009161   0.000199
    12  O    0.000019   0.000259   0.000001   0.000008   0.001731   0.000477
    13  C    0.037599  -0.189123   0.002414   0.014140  -0.050933   0.011395
    14  C    0.005072  -0.023964   0.000742  -0.012093   0.014652  -0.002183
    15  O    0.000474   0.019220   0.001963   0.013000  -0.005262  -0.000755
    16  C   -3.173110   0.046358  -0.036503   0.004134  -0.004903  -0.003085
    17  C    1.546258  -0.182319   0.007269   0.000927  -0.000388  -0.000448
    18  Cl  -0.093937   0.083925   0.000018  -0.000001   0.000000   0.000000
    19  C    7.532399  -0.288115  -0.007252   0.000131  -0.000004  -0.000044
    20  C   -0.288115  11.798761   0.106555  -0.001564   0.000152   0.001810
    21  H   -0.007252   0.106555   0.296307  -0.000214   0.000000   0.000241
    22  H    0.000131  -0.001564  -0.000214   0.508158  -0.005830  -0.003043
    23  H   -0.000004   0.000152   0.000000  -0.005830   0.529862   0.005644
    24  H   -0.000044   0.001810   0.000241  -0.003043   0.005644   0.329086
    25  H    0.000639  -0.002712  -0.000002   0.000023   0.001857  -0.000022
    26  H    0.000018   0.005398   0.000036  -0.000217   0.002871   0.001279
    27  H    0.000000   0.000001   0.000000   0.000000  -0.000050   0.000001
    28  H    0.000179  -0.000120  -0.000005  -0.007570  -0.000056  -0.000004
    29  H    0.000095  -0.000142   0.000000  -0.000017  -0.001732   0.000000
    30  H   -0.000081   0.000165   0.000000  -0.000102   0.000113   0.000000
    31  H   -0.000006   0.000003   0.000000   0.000223  -0.000054  -0.000004
    32  H    0.043722  -0.015317  -0.000009   0.000001   0.000000   0.000000
    33  H    0.177944  -0.008027   0.000002   0.000000   0.000000   0.000000
    34  H   -0.004916   0.300015   0.000067   0.000000   0.000000   0.000000
             25         26         27         28         29         30
     1  O    0.000052  -0.000132   0.000000   0.000050   0.000000  -0.000001
     2  C   -0.015562   0.021621  -0.000005  -0.007347  -0.001738   0.000850
     3  C   -0.038356   0.013634   0.000024  -0.017812  -0.005991   0.003515
     4  C   -0.034413  -0.002881   0.000392   0.009584  -0.011093   0.016303
     5  N   -0.006044   0.000300   0.000046   0.008687   0.000615  -0.001659
     6  C   -0.002887   0.046375   0.000883  -0.030872  -0.075686   0.048839
     7  C   -0.055779  -0.019309  -0.003415   0.035337   0.083179  -0.020599
     8  O    0.008150  -0.001348   0.000010  -0.000760  -0.000758   0.000066
     9  C    0.369785   0.336264   0.053838  -0.001452  -0.021818   0.001471
    10  C    0.017096  -0.010025  -0.031843   0.002180   0.005308  -0.001207
    11  O   -0.000967   0.009723   0.240876  -0.000015  -0.001545   0.000145
    12  O   -0.000154  -0.000332   0.002865   0.000000  -0.000120   0.000001
    13  C    0.025393  -0.037416  -0.000563   0.360764   0.002731  -0.101918
    14  C   -0.005154   0.000904   0.000402  -0.058084   0.366980   0.433760
    15  O    0.013029  -0.004104  -0.000005  -0.041439   0.006471  -0.007781
    16  C    0.026964  -0.019921   0.000011   0.024397   0.010713  -0.005476
    17  C    0.012360  -0.007519  -0.000002   0.003203   0.001285  -0.001474
    18  Cl   0.000011  -0.000002   0.000000   0.000022   0.000006   0.000000
    19  C    0.000639   0.000018   0.000000   0.000179   0.000095  -0.000081
    20  C   -0.002712   0.005398   0.000001  -0.000120  -0.000142   0.000165
    21  H   -0.000002   0.000036   0.000000  -0.000005   0.000000   0.000000
    22  H    0.000023  -0.000217   0.000000  -0.007570  -0.000017  -0.000102
    23  H    0.001857   0.002871  -0.000050  -0.000056  -0.001732   0.000113
    24  H   -0.000022   0.001279   0.000001  -0.000004   0.000000   0.000000
    25  H    0.501706  -0.026616  -0.000154  -0.000025  -0.000916   0.000084
    26  H   -0.026616   0.480854  -0.000170   0.000003   0.000086   0.000000
    27  H   -0.000154  -0.000170   0.293657   0.000000  -0.000031  -0.000001
    28  H   -0.000025   0.000003   0.000000   0.537592   0.003819  -0.004581
    29  H   -0.000916   0.000086  -0.000031   0.003819   0.515550  -0.026140
    30  H    0.000084   0.000000  -0.000001  -0.004581  -0.026140   0.504725
    31  H    0.000001  -0.000005   0.000008  -0.001428  -0.026785  -0.022614
    32  H   -0.000006   0.000001   0.000000  -0.000008  -0.000002  -0.000003
    33  H    0.000000   0.000000   0.000000   0.000000   0.000000   0.000000
    34  H    0.000000   0.000000   0.000000   0.000000   0.000000   0.000000
             31         32         33         34
     1  O    0.000000  -0.000403  -0.000428  -0.003506
     2  C   -0.000057   0.047142  -0.057513   0.029128
     3  C   -0.000602   0.020081   0.004141   0.008425
     4  C   -0.001614   0.061168  -0.009067   0.000657
     5  N   -0.002602   0.002174   0.000040   0.000473
     6  C    0.051135   0.000701   0.000025   0.000130
     7  C   -0.034162  -0.000178  -0.000011  -0.000015
     8  O    0.000043   0.000002   0.000000   0.000000
     9  C    0.003789   0.001969  -0.000012   0.000023
    10  C    0.000024   0.000201  -0.000001   0.000001
    11  O    0.000687   0.000000   0.000000   0.000000
    12  O    0.000014   0.000000   0.000000   0.000000
    13  C   -0.110500   0.014330  -0.000090   0.000050
    14  C    0.448524  -0.000234   0.000000   0.000001
    15  O    0.006639   0.007093   0.000005   0.000016
    16  C   -0.000391   0.121244   0.144753  -0.000646
    17  C   -0.000008   0.023635   0.086228  -0.002040
    18  Cl   0.000000  -0.002793  -0.008112   0.000919
    19  C   -0.000006   0.043722   0.177944  -0.004916
    20  C    0.000003  -0.015317  -0.008027   0.300015
    21  H    0.000000  -0.000009   0.000002   0.000067
    22  H    0.000223   0.000001   0.000000   0.000000
    23  H   -0.000054   0.000000   0.000000   0.000000
    24  H   -0.000004   0.000000   0.000000   0.000000
    25  H    0.000001  -0.000006   0.000000   0.000000
    26  H   -0.000005   0.000001   0.000000   0.000000
    27  H    0.000008   0.000000   0.000000   0.000000
    28  H   -0.001428  -0.000008   0.000000   0.000000
    29  H   -0.026785  -0.000002   0.000000   0.000000
    30  H   -0.022614  -0.000003   0.000000   0.000000
    31  H    0.501040   0.000000   0.000000   0.000000
    32  H    0.000000   0.460909  -0.000129   0.000008
    33  H    0.000000  -0.000129   0.466751  -0.003641
    34  H    0.000000   0.000008  -0.003641   0.469382
 Mulliken atomic charges:
              1
     1  O   -0.545175
     2  C   -0.227024
     3  C   -0.141222
     4  C    0.263135
     5  N   -0.331856
     6  C   -0.047324
     7  C   -0.159109
     8  O   -0.531116
     9  C   -0.116462
    10  C    0.270992
    11  O   -0.487331
    12  O   -0.487464
    13  C    0.249285
    14  C   -0.460733
    15  O   -0.303675
    16  C   -0.580335
    17  C   -0.066887
    18  Cl   0.232581
    19  C   -0.372158
    20  C    0.353242
    21  H    0.446006
    22  H    0.209756
    23  H    0.194101
    24  H    0.409245
    25  H    0.212621
    26  H    0.210631
    27  H    0.443226
    28  H    0.185760
    29  H    0.177677
    30  H    0.183600
    31  H    0.188704
    32  H    0.214702
    33  H    0.207142
    34  H    0.205468
 Sum of Mulliken atomic charges =   0.00000
 Mulliken charges with hydrogens summed into heavy atoms:
              1
     1  O   -0.099168
     2  C   -0.227024
     3  C   -0.141222
     4  C    0.263135
     5  N   -0.331856
     6  C    0.162432
     7  C    0.034992
     8  O   -0.121872
     9  C    0.306789
    10  C    0.270992
    11  O   -0.044105
    12  O   -0.487464
    13  C    0.435046
    14  C    0.089247
    15  O   -0.303675
    16  C   -0.365632
    17  C   -0.066887
    18  Cl   0.232581
    19  C   -0.165016
    20  C    0.558709
 Sum of Mulliken charges with hydrogens summed into heavy atoms =   0.00000
 Electronic spatial extent (au):  <R**2>=           7582.4519
 Charge=              0.0000 electrons
 Dipole moment (field-independent basis, Debye):
    X=              0.3976    Y=             -3.1858    Z=             -3.8039  Tot=              4.9776
 Quadrupole moment (field-independent basis, Debye-Ang):
   XX=           -124.5631   YY=           -127.6270   ZZ=           -128.2240
   XY=            -22.3401   XZ=            -13.2924   YZ=             -0.6810
 Traceless Quadrupole moment (field-independent basis, Debye-Ang):
   XX=              2.2416   YY=             -0.8223   ZZ=             -1.4193
   XY=            -22.3401   XZ=            -13.2924   YZ=             -0.6810
 Octapole moment (field-independent basis, Debye-Ang**2):
  XXX=             41.7912  YYY=            -24.4293  ZZZ=            -52.5217  XYY=             15.4283
  XXY=            -43.5752  XXZ=             -3.4737  XZZ=             -5.3015  YZZ=            -18.8161
  YYZ=              6.4556  XYZ=            -29.0519
 Hexadecapole moment (field-independent basis, Debye-Ang**3):
 XXXX=          -6628.9203 YYYY=          -1616.2019 ZZZZ=          -1309.8680 XXXY=           -580.9174
 XXXZ=            -38.7798 YYYX=            -15.4965 YYYZ=              1.7825 ZZZX=           -136.1564
 ZZZY=            -30.6776 XXYY=          -1415.1897 XXZZ=          -1474.8419 YYZZ=           -452.3310
 XXYZ=            -64.2790 YYXZ=             17.4450 ZZXY=            -77.0793
 N-N= 1.686348262608D+03 E-N=-6.644585875674D+03  KE= 1.385303793974D+03
 D1PCM: PCM CHGder 1st derivatives, ID1Alg=3 FixD1E=F DoIter=F DoCFld=F I1PDM=0.
 Calling FoFJK, ICntrl=      2127 FMM=F ISym2X=0 I1Cent= 0 IOpClX= 0 NMat=1 NMatS=1 NMatT=0.
 ***** Axes restored to original set *****
 -------------------------------------------------------------------
 Center     Atomic                   Forces (Hartrees/Bohr)
 Number     Number              X              Y              Z
 -------------------------------------------------------------------
      1        8          -0.027404090    0.016937811   -0.002446508
      2        6           0.007845050   -0.006938198    0.000009840
      3        6           0.001858989    0.018417263    0.004652660
      4        6           0.002676289   -0.001124038    0.002181546
      5        7          -0.012916306   -0.015987547   -0.007753129
      6        6           0.020845996    0.006626655    0.002233278
      7        6          -0.013125669   -0.004999183    0.000696516
      8        8           0.029444897    0.000827783   -0.005878541
      9        6           0.007043952    0.003582610    0.002905833
     10        6          -0.006957021   -0.003132907   -0.010281436
     11        8          -0.039238387   -0.016106213    0.015784735
     12        8           0.008700196    0.007970622    0.027461431
     13        6           0.019554718   -0.006439498   -0.000479831
     14        6          -0.010660545   -0.000382206   -0.001139065
     15        8          -0.037361118    0.028242378   -0.008183064
     16        6          -0.017829882   -0.005323967   -0.004709349
     17        6           0.013221485   -0.023963064   -0.002345637
     18       17          -0.002533726    0.008248818    0.001174480
     19        6           0.016325418   -0.008129359    0.001999597
     20        6           0.008680152    0.017711836    0.005830166
     21        1           0.024609844   -0.002156585    0.004050797
     22        1           0.003173259   -0.005126394   -0.005062999
     23        1           0.002282026   -0.000000413   -0.000001941
     24        1          -0.022963703   -0.008157162   -0.001199959
     25        1           0.001355299    0.006603168    0.004012680
     26        1           0.002190364   -0.004650020   -0.001465596
     27        1           0.024882699    0.005311399   -0.025258812
     28        1          -0.000576924   -0.001154274    0.003874502
     29        1          -0.000922199   -0.001193365   -0.004209586
     30        1          -0.001855577    0.000454327    0.002390133
     31        1          -0.000237892   -0.003984039    0.001384583
     32        1           0.004508292    0.001186278    0.001450968
     33        1          -0.004127727    0.000754082   -0.000779830
     34        1          -0.000488160   -0.003926595   -0.000898464
 -------------------------------------------------------------------
 Cartesian Forces:  Max     0.039238387 RMS     0.011848133

 GradGradGradGradGradGradGradGradGradGradGradGradGradGradGradGradGradGrad
 Berny optimization.
 Internal  Forces:  Max     0.035845435 RMS     0.007714136
 Search for a local minimum.
 Step number   1 out of a maximum of  191
 All quantities printed in internal units (Hartrees-Bohrs-Radians)
 Mixed Optimization -- RFO/linear search
 Second derivative matrix not updated -- first step.
 ITU=  0
     Eigenvalues ---    0.00230   0.00230   0.00266   0.00380   0.00686
     Eigenvalues ---    0.00852   0.00906   0.01484   0.01557   0.01685
     Eigenvalues ---    0.01845   0.01925   0.01955   0.01969   0.01981
     Eigenvalues ---    0.01996   0.01997   0.02000   0.02147   0.02228
     Eigenvalues ---    0.02372   0.03740   0.03746   0.03780   0.04004
     Eigenvalues ---    0.04204   0.04880   0.05079   0.05129   0.05221
     Eigenvalues ---    0.05521   0.07914   0.07935   0.08505   0.09648
     Eigenvalues ---    0.12986   0.13713   0.16000   0.16000   0.16000
     Eigenvalues ---    0.16000   0.16000   0.16000   0.16000   0.16000
     Eigenvalues ---    0.16000   0.16942   0.17019   0.19333   0.19835
     Eigenvalues ---    0.21900   0.22371   0.23490   0.23712   0.24601
     Eigenvalues ---    0.24984   0.25000   0.25000   0.25000   0.25000
     Eigenvalues ---    0.25000   0.27353   0.27420   0.27461   0.28716
     Eigenvalues ---    0.29501   0.33060   0.33515   0.34519   0.34587
     Eigenvalues ---    0.34653   0.34744   0.34795   0.34805   0.35033
     Eigenvalues ---    0.35058   0.35936   0.35948   0.35975   0.37235
     Eigenvalues ---    0.39796   0.40407   0.42332   0.43054   0.43110
     Eigenvalues ---    0.43968   0.44306   0.44502   0.48222   0.51831
     Eigenvalues ---    0.53050   0.56679   0.57796   0.58778   0.70676
     Eigenvalues ---    0.92434
 RFO step:  Lambda=-2.95228870D-02 EMin= 2.30000000D-03
 Linear search not attempted -- first point.
 Iteration  1 RMS(Cart)=  0.08866895 RMS(Int)=  0.00152501
 Iteration  2 RMS(Cart)=  0.00262627 RMS(Int)=  0.00029581
 Iteration  3 RMS(Cart)=  0.00000541 RMS(Int)=  0.00029580
 Iteration  4 RMS(Cart)=  0.00000000 RMS(Int)=  0.00029580
 Variable       Old X    -DE/DX   Delta X   Delta X   Delta X     New X
                                 (Linear)    (Quad)   (Total)
    R1        2.58062  -0.01506   0.00000  -0.02749  -0.02749   2.55313
    R2        1.80370   0.02502   0.00000   0.04195   0.04195   1.84565
    R3        2.69053  -0.01884   0.00000  -0.04219  -0.04217   2.64836
    R4        2.66261  -0.01444   0.00000  -0.03087  -0.03087   2.63173
    R5        2.81457  -0.02292   0.00000  -0.06285  -0.06285   2.75171
    R6        2.67010  -0.01305   0.00000  -0.02801  -0.02799   2.64211
    R7        2.40461   0.01418   0.00000   0.01830   0.01851   2.42313
    R8        2.58452  -0.01264   0.00000  -0.02452  -0.02429   2.56022
    R9        2.72836   0.00944   0.00000   0.02450   0.02443   2.75278
   R10        2.93425  -0.00809   0.00000  -0.02663  -0.02663   2.90762
   R11        2.91044   0.00787   0.00000   0.02593   0.02567   2.93611
   R12        2.06464   0.00151   0.00000   0.00402   0.00402   2.06865
   R13        2.67534   0.00817   0.00000   0.01774   0.01774   2.69308
[...]
 00057145,-0.00035342,-0.00715128,0.02195380,-0.01040712,-0.06834717,0.
 07061651,0.00060612,0.00077698,-0.00156263,-0.00000211,0.00001149,-0.0
 0001146,0.00001029,-0.00000625,0.00000563,-0.00000217,0.00000103,0.000
 00033,0.00000014,-0.00000419,-0.00000754,-0.00001190,-0.00000585,0.000
 00595,-0.00001115,-0.00000671,-0.00000676,0.00012505,0.00015130,-0.000
 06958,0.00058696,-0.00091537,-0.00024785,-0.00011924,-0.00000092,0.000
 07945,-0.00079700,0.00029890,-0.00082292,-0.00002509,0.00018913,0.0002
 0946,0.00015747,0.00005023,-0.00004513,-0.00372863,-0.00169251,-0.0002
 4691,0.01365781,0.07160400,0.00004561,0.00001847,0.00002465,0.00001406
 ,-0.00002775,-0.00001352,0.00005875,0.00003580,-0.00000183,-0.00010131
 ,-0.00025455,-0.00003286,0.00016438,0.00016121,0.00010976,0.00016005,-
 0.00051220,0.00000042,0.00040579,-0.00003812,0.00008632,-0.00028662,-0
 .00001933,0.00005011,-0.00062041,-0.00066126,-0.00121758,-0.00032322,-
 0.00039198,-0.00012196,0.00000819,0.00009911,0.00016501,0.00008450,0.0
 0009975,-0.00007607,-0.00010464,0.00109787,-0.00196783,0.03275531,0.07
 289754,-0.29981386,0.00085467,-0.00004939,0.00079173,-0.00000440,0.000
 01606,0.00000725,0.00001364,0.00001872,0.00001308,0.00000528,-0.000013
 54,-0.00000191,0.00000763,-0.00001276,-0.00000315,-0.00000038,0.000003
 80,0.00000485,-0.00005950,-0.00002891,-0.00003297,-0.00004667,-0.00000
 306,0.00000398,-0.00030087,-0.00015702,-0.00003616,0.00005955,-0.00003
 548,-0.00002788,-0.00136175,-0.00126405,-0.00163708,-0.00004104,-0.000
 05488,-0.00005923,0.00004578,0.00004082,-0.00002564,0.00015365,0.00020
 423,0.00146452,-0.03433421,-0.07782647,0.32509592,-0.00032722,0.000017
 84,-0.00009652,0.00005136,-0.00011967,-0.00002022,0.00002372,0.0001691
 6,0.00011438,0.00032310,-0.00119505,-0.00035241,-0.00158280,-0.0010195
 6,-0.00104535,-0.00360099,-0.00060573,0.00206539,-0.00095003,0.0000605
 9,0.00049833,0.00031052,0.00006827,-0.00016475,0.00011004,-0.00000759,
 -0.00009119,-0.00009651,0.00001062,-0.00004347,0.00002512,0.00001245,0
 .00002270,0.00002504,-0.00000140,0.00000247,0.00205918,-0.02531444,-0.
 01705052,-0.05129692,0.03457973,0.02384359,0.00280694,0.00104946,0.000
 56170,-0.00000878,-0.00003546,-0.00001510,-0.00003104,-0.00001534,-0.0
 0001792,-0.00000694,0.00001968,0.00000428,-0.00001318,0.00002689,0.000
 00765,0.00001075,0.00002576,0.00000355,0.00036932,0.00015934,0.0001789
 0,-0.00005180,-0.00047217,-0.00019766,0.00040770,0.00004921,-0.0000063
 8,-0.00000661,0.00006636,0.00007259,-0.00002469,-0.00000266,0.00002114
 ,0.00002604,-0.00002117,0.00003077,0.00001599,0.00000731,0.00000027,0.
 00101527,0.00090109,-0.00002707,-0.00159305,0.00270478,0.00105035,0.05
 472364,-0.00026673,-0.00004260,-0.00008996,0.00001840,-0.00003090,-0.0
 0000369,-0.00005681,0.00010846,0.00005092,0.00016679,-0.00082412,-0.00
 022838,-0.00103842,-0.00062304,-0.00080260,-0.00262890,0.00101425,0.00
 201746,-0.00027797,0.00023999,0.00061823,0.00010654,-0.00015464,-0.000
 28349,0.00009081,-0.00003896,-0.00004832,-0.00010219,0.00002930,0.0000
 2584,0.00004625,0.00002284,-0.00001068,0.00003030,-0.00002359,-0.00003
 399,0.00372143,-0.01855945,-0.01164794,0.03207509,-0.23223435,-0.12649
 102,0.00071438,0.00153340,0.00056332,0.00001122,-0.00005237,-0.0000214
 6,-0.00004885,-0.00005251,-0.00003230,-0.00001788,0.00003784,0.0000083
 3,-0.00002311,0.00005441,0.00001225,0.00001675,0.00000120,0.00000084,0
 .00031520,0.00017581,0.00015112,0.00004636,-0.00027606,-0.00010377,-0.
 00003307,0.00000350,0.00012880,0.00003228,0.00005780,0.00006831,-0.000
 07574,0.00003650,-0.00001526,-0.00001876,0.00004865,0.00002270,0.00000
 397,0.00000821,0.00000605,0.00036800,0.00054669,0.00023752,-0.00139587
 ,0.00911539,0.00565068,-0.03268104,0.25061302,0.00007604,0.00001246,0.
 00002268,-0.00000499,0.00000475,-0.00000502,0.00003847,0.00000820,-0.0
 0001186,-0.00027523,-0.00021646,-0.00024108,0.00017431,0.00063635,0.00
 052371,0.00159480,0.00004657,0.00069009,0.00047819,0.00045463,0.000010
 19,-0.00028387,-0.00029709,-0.00000018,-0.00013716,0.00010559,-0.00006
 086,-0.00011795,-0.00000305,0.00048038,0.00012398,-0.00001041,-0.00016
 947,0.00001690,-0.00001717,-0.00031330,-0.00166896,0.00498632,0.002127
 72,0.02334846,-0.12756905,-0.13576476,0.00005354,-0.00010887,0.0000224
 4,-0.00000283,-0.00000187,-0.00000353,-0.00000034,0.00001176,0.0000029
 5,0.00000393,-0.00000568,-0.00000087,0.00000462,-0.00000391,-0.0000005
 7,0.00000371,-0.00000284,0.00000498,-0.00008706,-0.00003549,-0.0000361
 8,-0.00016518,-0.00018858,-0.00011674,-0.00041758,0.00006553,-0.000097
 06,0.00007889,-0.00001477,-0.00003270,0.00023660,-0.00026850,0.0001024
 6,0.00004112,-0.00012548,-0.00009635,-0.00006997,-0.00002542,0.0000195
 5,-0.00070198,0.00032883,0.00055820,0.00434451,-0.02534852,-0.01500786
 ,-0.02585329,0.13760454,0.14149811,-0.00001828,-0.00009981,-0.00004031
 ,-0.00013682,0.00024865,0.00002000,-0.00019540,-0.00044502,-0.00032316
 ,-0.00023570,0.00258437,0.00108768,0.00022380,-0.00069215,0.00000968,0
 .00027742,0.00012182,-0.00002049,-0.00032480,-0.00022035,0.00000324,0.
 00022002,0.00006405,0.00001366,0.00015096,0.00010700,0.00010187,-0.000
 00500,-0.00002351,-0.00003547,-0.00000624,-0.00000640,-0.00000122,-0.0
 0000268,0.00000676,0.00002033,-0.01762221,0.01472413,-0.00866799,-0.23
 714035,0.10291652,-0.07190293,-0.00539390,-0.00503988,-0.00037380,0.00
 005596,-0.00006859,0.00000505,-0.00003427,-0.00007544,-0.00003823,-0.0
 0002446,0.00004861,0.00000921,-0.00002092,0.00004866,0.00000976,-0.000
 01250,-0.00007405,-0.00001937,0.00008195,0.00005456,0.00004238,-0.0000
 5140,-0.00028425,-0.00012495,0.00030563,-0.00011051,-0.00034445,-0.000
 02143,0.00004705,0.00004577,-0.00005305,-0.00001944,0.00001690,0.00004
 162,0.00000223,0.00008157,0.00000890,-0.00000109,-0.00000129,0.0007465
 6,0.00005573,0.00047390,0.00504426,-0.00280935,0.00169673,-0.00270314,
 0.00090304,-0.00082013,0.25683983,0.00004760,-0.00006094,-0.00000386,-
 0.00012434,0.00017536,0.00001280,-0.00018342,-0.00039331,-0.00021801,-
 0.00078353,0.00178969,0.00041662,0.00046479,-0.00014279,0.00020944,0.0
 0048346,0.00014138,-0.00042738,-0.00002463,-0.00005935,-0.00016700,0.0
 0004031,0.00003528,0.00004594,0.00000941,-0.00005820,0.00004721,0.0000
 3674,0.00000748,-0.00005391,-0.00001769,-0.00000069,0.00002359,-0.0000
 0667,0.00000400,0.00003926,-0.01521986,0.01099738,-0.00780884,0.104587
 11,-0.10460010,0.04151989,-0.00594865,-0.00289124,-0.00046775,0.000036
 97,-0.00004313,-0.00000423,-0.00000953,-0.00004042,-0.00002145,-0.0000
 1384,0.00002794,0.00000567,-0.00001220,0.00002113,0.00000612,-0.000011
 74,-0.00005363,-0.00002504,-0.00002533,0.00000478,-0.00000584,0.000079
 20,-0.00011361,0.00005041,-0.00003380,-0.00017461,-0.00043716,-0.00002
 662,0.00000780,0.00001435,-0.00004983,-0.00000276,-0.00001605,-0.00000
 728,-0.00000283,0.00000510,0.00000827,0.00000339,-0.00000229,0.0008010
 4,0.00064383,0.00027912,0.00628109,-0.00453263,0.00099918,0.02155083,-
 0.01072835,0.00997216,-0.11192902,0.11006788,0.00001049,0.00001844,0.0
 0001450,0.00004178,-0.00003511,-0.00001571,0.00006632,0.00008589,0.000
 01864,0.00033859,-0.00017063,0.00027445,0.00004984,0.00011410,-0.00007
 054,-0.00007421,-0.00002197,0.00032952,-0.00080375,0.00013510,-0.00031
 308,0.00032514,0.00015846,0.00019427,-0.00014276,0.00023190,-0.0002117
 5,-0.00019957,-0.00011330,0.00010586,0.00009919,0.00001785,0.00002746,
 0.00005268,0.00004477,-0.00008267,0.00240480,-0.00285416,-0.00112084,-
 0.07272314,0.04129068,-0.07412645,0.00110265,0.00054304,0.00119810,-0.
 00000875,0.00000823,0.00001406,0.00001147,0.00001593,0.00000657,0.0000
 0553,-0.00001025,-0.00000225,0.00000616,-0.00001494,-0.00000376,-0.000
 00351,0.00001316,0.00000928,-0.00003070,-0.00001561,-0.00002233,-0.000
 04100,-0.00005330,-0.00000218,0.00030274,-0.00033276,-0.00050156,-0.00
 004524,0.00005792,0.00000867,0.00015837,-0.00022430,0.00015915,0.00004
 479,-0.00019120,-0.00004732,0.00000747,0.00000342,0.00000375,-0.000291
 57,-0.00031517,-0.00003686,-0.02624862,0.01294156,-0.00773618,0.016503
 20,-0.00734604,0.00589062,0.07908350,-0.04398428,0.07603918,0.00031094
 ,0.00098739,0.00042657,-0.00028958,0.00310316,-0.00100472,0.01152251,0
 .00802959,0.00517582,0.00011268,-0.00016472,0.00119581,0.00004262,-0.0
 0047776,-0.00010300,0.00004538,0.00008849,-0.00007105,0.00000100,0.000
 00959,0.00003840,0.00000443,-0.00004096,-0.00003591,0.00002283,0.00001
 021,-0.00001165,-0.00002225,0.00000109,0.00004008,0.00001374,-0.000000
 45,-0.00001359,0.00000465,-0.00000338,-0.00002995,-0.00038467,0.000123
 43,-0.00015163,0.00006225,-0.00006282,0.00003116,-0.00191178,0.0009233
 1,-0.00013831,-0.15637191,-0.11594820,-0.07820442,-0.01134075,-0.01930
 985,-0.01170238,0.00070415,-0.00140832,0.00068862,-0.00417177,0.002536
 42,-0.00230578,-0.00033618,0.00097552,0.00054832,0.00037000,-0.0000900
 4,0.00009091,-0.00002661,-0.00000536,-0.00000664,-0.00000263,0.0000019
 0,-0.00000737,0.00000785,0.00001077,0.00001011,-0.00000071,-0.00001072
 ,0.00000891,0.00000383,-0.00000311,0.00000545,-0.00000286,0.00000111,0
 .00000212,0.00006818,-0.00003945,0.00003657,-0.00000415,0.00000830,-0.
 00000162,-0.00001362,0.00000009,-0.00001247,0.00002605,0.00001752,-0.0
 0000584,0.16196989,-0.00065058,-0.00116076,-0.00064288,0.00421748,-0.0
 0197567,-0.00146050,-0.01608862,-0.01363460,-0.01129162,-0.00190423,-0
 .00167777,0.00031878,-0.00002441,0.00055447,0.00013695,-0.00011041,0.0
 0022909,-0.00018127,0.00006206,-0.00004407,-0.00010442,-0.00001232,0.0
 0007011,0.00007836,-0.00002966,-0.00001411,0.00003963,0.00005573,0.000
 00662,-0.00008250,-0.00003672,-0.00000892,0.00002938,-0.00001385,0.000
 00572,0.00005949,0.00082253,0.00000791,0.00062453,-0.00005571,0.000087
 28,-0.00004570,-0.00050103,0.00115709,-0.00004841,-0.11651103,-0.19221
 097,-0.09085212,0.00631192,0.00806525,0.00329060,0.00014758,0.00056517
 ,0.00129578,0.00268474,0.00066262,-0.00096558,0.00037589,-0.00016715,0
 .00039012,-0.00054949,0.00012414,-0.00012355,-0.00004913,0.00005080,0.
 00005892,0.00000188,-0.00000013,0.00000847,-0.00001132,-0.00002560,-0.
 00002398,0.00000490,0.00002107,-0.00002252,-0.00000875,-0.00000147,-0.
 00001130,0.00000554,0.00000080,-0.00000605,-0.00006689,0.00003943,-0.0
 0004740,0.00000345,-0.00000909,0.00000889,0.00000939,-0.00000969,0.000
 00540,-0.00004234,-0.00003355,0.00000361,0.12185089,0.19880971,-0.0001
 5193,-0.00018181,0.00000246,-0.00056937,-0.00180446,0.00531617,-0.0032
 5088,-0.00351475,0.00179925,0.00068116,0.00070596,-0.00352945,-0.00007
 075,0.00016901,-0.00002511,-0.00009463,-0.00010259,0.00041362,-0.00007
 154,-0.00000115,-0.00007579,-0.00000275,0.00004193,0.00003180,-0.00001
 079,0.00000130,-0.00000094,0.00002455,0.00000011,-0.00002926,-0.000019
 88,-0.00000093,0.00001107,-0.00000789,0.00000439,0.00001788,0.00024663
 ,0.00017524,0.00001209,0.00001415,0.00000088,0.00000686,-0.00067575,0.
 00047829,0.00004664,-0.07835546,-0.09067613,-0.09444757,-0.00285969,-0
 .00486803,0.00180729,0.00123581,0.00079648,-0.00226029,-0.00226377,-0.
 00100502,0.00484581,0.00035104,0.00057840,-0.00066538,-0.00010323,0.00
 002015,-0.00004356,0.00004462,0.00000646,-0.00000242,-0.00001283,0.000
 00142,0.00002281,-0.00000426,-0.00000978,-0.00000707,0.00001375,0.0000
 0187,-0.00000428,0.00000133,-0.00000314,-0.00000604,0.00000481,-0.0000
 0177,-0.00000204,-0.00003729,0.00002925,-0.00001459,0.00000211,-0.0000
 0648,-0.00000357,-0.00000226,-0.00000815,0.00000415,-0.00000386,-0.000
 00131,-0.00000140,0.08587840,0.09917665,0.08726178,-0.00056310,0.00022
 876,-0.00005337,0.00205045,0.00136375,-0.00152738,0.00086138,-0.000345
 81,0.00043971,-0.00034202,-0.00001297,0.00008403,0.00000488,-0.0000998
 7,0.00004257,-0.00001164,0.00000060,-0.00006638,0.00001725,0.00001572,
 0.00002309,-0.00000126,-0.00000747,-0.00000443,0.00000068,-0.00000367,
 -0.00000095,-0.00000759,0.00000118,0.00000751,0.00000587,0.00000130,-0
 .00000346,0.00000279,-0.00000127,-0.00000451,0.00001472,-0.00001905,0.
 00001591,-0.00000234,0.00000127,-0.00000119,-0.00001438,0.00005750,-0.
 00002064,-0.00002336,-0.00232546,-0.00252827,-0.01168919,0.00631629,-0
 .00274813,0.00058688,0.00031134,0.00103911,-0.31674647,0.06197254,-0.0
 6685966,-0.00412925,0.00063502,-0.00269567,0.00017386,0.00006656,0.000
 15360,0.00000388,0.00000570,0.00000659,0.00000509,-0.00000182,-0.00000
 736,-0.00000028,0.00000381,0.00000287,0.00000040,-0.00000016,0.0000000
 6,-0.00000011,0.00000066,0.00000297,-0.00000116,0.00000032,0.00000082,
 0.00000051,-0.00000104,-0.00000145,-0.00000011,-0.00000055,-0.00000032
 ,0.00000076,0.00000099,0.00000033,-0.00000039,-0.00000065,0.,-0.000425
 24,0.00026082,-0.00002679,0.33004910,0.00178292,-0.00022313,0.00055239
 ,0.00140209,-0.00345670,-0.00367144,0.00010389,-0.00112628,-0.00003361
 ,-0.00020507,-0.00008172,0.00012737,0.00010012,-0.00001824,0.00008621,
 -0.00002816,0.00004972,-0.00003515,0.00000936,0.00000667,0.00001205,-0
 .00000018,-0.00000517,-0.00000453,-0.00000080,-0.00000415,-0.00000411,
 -0.00000462,0.00000190,0.00000828,0.00000460,0.00000059,-0.00000313,0.
 00000194,-0.00000126,-0.00000504,0.00003178,0.00000791,0.00001801,-0.0
 0000157,0.00000290,0.00000453,0.00001435,0.00011939,0.00001117,-0.0023
 4792,-0.00241149,-0.00347499,-0.02005094,0.00722417,-0.00520925,-0.001
 01948,0.00096410,0.00082044,0.06358197,-0.06968470,0.00965616,0.026615
 06,-0.00116667,0.00631840,-0.00021021,-0.00036281,-0.00011339,0.000000
 05,0.00000378,0.00000472,0.00000314,-0.00000061,-0.00000461,-0.0000017
 6,0.00000386,0.00000354,-0.00000040,-0.00000052,-0.00000011,-0.0000007
 2,-0.00000105,0.00000372,-0.00000079,0.00000032,0.00000049,0.00000013,
 0.00000028,0.00000040,0.00000026,-0.00000042,-0.00000011,0.00000244,0.
 00000198,-0.00000003,0.00000055,-0.00000001,-0.00000022,-0.00097227,0.
 00052529,-0.00010358,-0.06785503,0.06904247,0.00050905,0.,-0.00000046,
 -0.00146866,-0.00364305,0.00663765,0.00059256,-0.00019874,-0.00081338,
 0.00005646,0.00017132,-0.00055965,0.00006558,0.00004785,-0.00009257,-0
 .00004552,-0.00003157,0.00007499,-0.00001104,0.00000964,0.00000846,0.0
 0000025,0.,-0.00000199,-0.00000260,0.00000009,-0.00000338,-0.00000034,
 0.00000152,0.00000973,0.00000054,0.00000011,-0.00000303,-0.00000063,-0
 .00000071,-0.00000690,0.00002024,0.00002739,0.00000500,-0.00000156,0.0
 0000488,0.00000333,-0.00000150,0.00000260,0.00007076,-0.00255250,-0.00
 345329,0.00338043,-0.01192548,0.00318220,0.00113899,0.00056327,0.00124
 973,-0.00174319,-0.06628321,0.00907421,-0.05720715,0.00631194,-0.00184
 503,0.00636799,0.00002064,-0.00002752,-0.00024126,0.00001172,-0.000003
 30,-0.00000218,0.00000083,-0.00000109,-0.00000148,-0.00000049,0.000004
 00,0.00000496,0.00000010,-0.00000158,0.00000151,-0.00000064,-0.0000001
 3,0.00000480,0.00000028,-0.00000026,0.00000046,0.00000182,-0.00000062,
 -0.00000146,0.00000006,-0.00000059,-0.00000054,0.00000202,0.00000100,0
 .00000012,-0.00000023,0.00000015,-0.00000039,-0.00046404,0.00028234,-0
 .00010676,0.07334113,-0.00653338,0.04688634,0.00273840,-0.00129690,0.0
 0147334,-0.01181708,-0.02136526,-0.01288660,-0.00417137,0.00247410,-0.
 00201639,0.00021006,-0.00145536,-0.00042239,0.00011774,0.00020135,0.00
 008079,0.00001650,0.00005917,0.00003049,-0.00000878,-0.00002642,-0.000
 04647,0.00000215,0.00002574,0.00002456,-0.00000809,-0.00000225,0.00001
 299,0.00001165,-0.00000175,-0.00003650,-0.00000898,-0.00000133,0.00001
 256,-0.00000124,0.00000418,0.00002540,0.00006754,-0.00014848,0.0000521
 7,-0.00004470,0.00004889,-0.00002771,-0.00067468,0.00020722,-0.0001625
 9,-0.00083216,0.00130896,0.00047496,0.00106383,0.00293334,-0.00104013,
 0.00009592,0.00095181,0.00029474,0.01113759,0.00973373,0.00596576,-0.1
 5422405,-0.11433507,-0.07774444,-0.00035288,-0.00009856,0.00004592,-0.
 00002356,0.00000037,0.00000061,-0.00000504,0.00000109,0.00001129,-0.00
 000561,-0.00001097,-0.00001129,0.00000197,0.00000635,-0.00000621,-0.00
 000268,-0.00000199,-0.00001021,0.00000100,-0.00000048,-0.00000190,-0.0
 0002347,0.00001156,-0.00000779,0.00000236,-0.00000136,0.00000301,0.000
 00282,-0.00000252,0.00000060,-0.00002003,-0.00001568,0.00000394,0.0000
 1172,-0.00014831,0.00009726,0.00017940,-0.00095471,0.00125995,0.156563
 72,-0.00092217,0.00029969,0.00092227,0.00591597,0.00833434,0.00310694,
 0.00196101,0.00039684,-0.00100634,0.00031194,0.00037695,0.00021657,0.0
 0002148,0.00006098,0.00000519,-0.00002948,0.00001286,0.00000326,-0.000
 00261,0.00000688,0.00000842,0.00000043,-0.00001092,-0.00000668,-0.0000
 0070,0.00000044,-0.00000604,-0.00000895,-0.00000161,0.00000908,0.00000
 728,0.00000140,-0.00000357,0.00000368,-0.00000117,-0.00000524,-0.00000
 005,0.00006165,0.00000328,0.00001310,-0.00001409,0.00001274,0.00022681
 ,-0.00007385,0.00009853,0.00058462,-0.00022333,0.00043723,0.00325321,-
 0.00145510,-0.00208515,-0.00020952,-0.00124738,-0.00057892,-0.01671460
 ,-0.01419430,-0.01129375,-0.11552782,-0.19382124,-0.09202975,-0.000091
 24,0.00003431,0.00019200,0.00000451,-0.00000161,-0.00000109,0.00000035
 ,-0.00000022,-0.00000143,0.00000216,0.00000475,0.00000223,-0.00000024,
 -0.00000203,0.00000170,-0.00000152,0.00000258,0.00000330,-0.00000109,0
 .00000042,0.00000106,0.00000870,-0.00000371,0.00000562,-0.00000172,0.0
 0000007,-0.00000128,0.00000009,0.00000142,0.00000011,0.00000747,0.0000
 0485,-0.00000082,-0.00014135,-0.00000902,0.00010131,-0.00056928,0.0005
 8961,0.00168185,0.12189955,0.20086954,0.00154291,0.00081443,-0.0024447
 9,-0.00324331,-0.00571432,0.00200611,-0.00223425,-0.00081364,0.0040217
 2,0.00017580,-0.00031343,-0.00007589,0.00004310,0.00006983,0.00005237,
 -0.00000988,0.00001914,0.00002722,-0.00000868,-0.00001100,-0.00001417,
 -0.00000220,0.00000946,0.00000302,0.00000228,0.00000014,0.00000390,0.0
 0001015,0.00000304,-0.00000382,-0.00000990,-0.00000180,0.00000226,-0.0
 0000496,0.00000033,0.00000066,0.00002930,-0.00002170,-0.00001405,-0.00
 000467,0.00000993,-0.00000330,-0.00012895,0.00006984,-0.00012063,0.000
 21312,0.00069675,-0.00060700,-0.00090711,-0.00220629,0.00646585,-0.000
 11344,-0.00020138,0.00010995,-0.00321045,-0.00288588,0.00097814,-0.078
 21033,-0.09158611,-0.09216705,0.00005574,0.00018841,-0.00051118,-0.000
 00487,0.00000032,-0.00000091,-0.00000259,0.00000111,0.00000408,-0.0000
 0064,-0.00000340,0.00000037,0.00000036,0.00000139,-0.00000135,0.000000
 81,-0.00000341,-0.00000061,0.00000172,-0.00000024,-0.00000064,-0.00001
 037,0.00000419,-0.00000512,0.00000080,-0.00000041,0.00000009,0.0000008
 2,-0.00000084,0.00000003,-0.00000338,-0.00000257,0.00000116,0.00009311
 ,0.00010192,-0.00037417,0.00138964,0.00156880,-0.00380976,0.08455030,0
 .10020740,0.08647750\\-0.00003650,0.00001391,-0.00000870,-0.00001389,-
 0.00000739,-0.00000805,0.00001317,0.00002699,0.00001444,-0.00001769,0.
 00000480,-0.00000255,0.00001413,0.00000028,-0.00001423,0.00001479,-0.0
 0001075,0.00001590,-0.00001760,0.00002417,0.00000651,-0.00001370,-0.00
 004125,-0.00000291,0.00000221,0.00000110,0.00001099,0.00002150,0.00000
 477,0.00000312,-0.00002269,-0.00000515,0.00000659,-0.00000541,-0.00000
 177,-0.00000479,-0.00001399,0.00000662,-0.00000790,-0.00000045,-0.0000
 1297,0.00000469,0.00001777,0.00000028,0.00000335,0.00000736,-0.0000025
 7,-0.00000152,0.00000117,0.00002455,0.00000792,0.00001192,0.00000175,0
 .00000269,0.00000655,0.00001562,0.00000290,-0.00000004,0.00000337,-0.0
 0000591,0.00002359,-0.00000710,-0.00000314,-0.00000169,-0.00000765,-0.
 00001109,-0.00000060,-0.00000342,0.00000105,-0.00000979,0.00000106,-0.
 00001295,0.00000133,-0.00000049,0.00000660,-0.00000252,0.00000080,-0.0
 0000081,0.00001047,-0.00000759,-0.00000841,-0.00000429,-0.00001903,0.0
 0000180,0.00000248,-0.00001234,-0.00000308,0.00000793,-0.00001324,0.00
 000324,0.00000066,-0.00001603,-0.00000121,0.00000596,0.00000287,0.0000
 0584,0.00000302,0.00001624,0.00000174,-0.00000513,0.00001952,-0.000002
 10\\\@


 The lyf so short, the craft so long to lerne.
                             -- Chaucer
 Job cpu time:  0 days  8 hours 11 minutes  1.0 seconds.
 File lengths (MBytes):  RWF=    866 Int=      0 D2E=      0 Chk=     20 Scr=      1
 Normal termination of Gaussian 09 at Sat Mar 23 00:46:08 2019.
