 Entering Gaussian System, Link 0=g09
 Initial command:
 /home/yuheng/proj/yuheng/g09/l1.exe /home/yuheng/proj/yuheng/g09_scratch/Gau-16278.inp -scrdir=/home/yuheng/proj/yuheng/g09_scratch/
 Entering Link 1 = /home/yuheng/proj/yuheng/g09/l1.exe PID=     16279.
  
 Copyright (c) 1988,1990,1992,1993,1995,1998,2003,2009,2010,
            Gaussian, Inc.  All Rights Reserved.
  
 This is part of the Gaussian(R) 09 program.  It is based on
 the Gaussian(R) 03 system (copyright 2003, Gaussian, Inc.),
 the Gaussian(R) 98 system (copyright 1998, Gaussian, Inc.),
 the Gaussian(R) 94 system (copyright 1995, Gaussian, Inc.),
 the Gaussian 92(TM) system (copyright 1992, Gaussian, Inc.),
 the Gaussian 90(TM) system (copyright 1990, Gaussian, Inc.),
 the Gaussian 88(TM) system (copyright 1988, Gaussian, Inc.),
 the Gaussian 86(TM) system (copyright 1986, Carnegie Mellon
 University), and the Gaussian 82(TM) system (copyright 1983,
 Carnegie Mellon University). Gaussian is a federally registered
 trademark of Gaussian, Inc.
  
 This software contains proprietary and confidential information,
 including trade secrets, belonging to Gaussian, Inc.
  
 This software is provided under written license and may be
 used, copied, transmitted, or stored only in accord with that
 written license.
  
 The following legend is applicable only to US Government
 contracts under FAR:
  
                    RESTRICTED RIGHTS LEGEND
  
 Use, reproduction and disclosure by the US Government is
 subject to restrictions as set forth in subparagraphs (a)
 and (c) of the Commercial Computer Software - Restricted
 Rights clause in FAR 52.227-19.
  
 Gaussian, Inc.
 340 Quinnipiac St., Bldg. 40, Wallingford CT 06492
  
  
 ---------------------------------------------------------------
 Warning -- This program may not be used in any manner that
 competes with the business of Gaussian, Inc. or will provide
 assistance to any competitor of Gaussian, Inc.  The licensee
 of this program is prohibited from giving any competitor of
 Gaussian, Inc. access to this program.  By using this program,
 the user acknowledges that Gaussian, Inc. is engaged in the
 business of creating and licensing software in the field of
 computational chemistry and represents and warrants to the
 licensee that it is not a competitor of Gaussian, Inc. and that
 it will not use this program in any manner prohibited above.
 ---------------------------------------------------------------
  

 Cite this work as:
 Gaussian 09, Revision B.01,
 M. J. Frisch, G. W. Trucks, H. B. Schlegel, G. E. Scuseria, 
 M. A. Robb, J. R. Cheeseman, G. Scalmani, V. Barone, B. Mennucci, 
 G. A. Petersson, H. Nakatsuji, M. Caricato, X. Li, H. P. Hratchian, 
 A. F. Izmaylov, J. Bloino, G. Zheng, J. L. Sonnenberg, M. Hada, 
 M. Ehara, K. Toyota, R. Fukuda, J. Hasegawa, M. Ishida, T. Nakajima, 
 Y. Honda, O. Kitao, H. Nakai, T. Vreven, J. A. Montgomery, Jr., 
 J. E. Peralta, F. Ogliaro, M. Bearpark, J. J. Heyd, E. Brothers, 
 K. N. Kudin, V. N. Staroverov, T. Keith, R. Kobayashi, J. Normand, 
 K. Raghavachari, A. Rendell, J. C. Burant, S. S. Iyengar, J. Tomasi, 
 M. Cossi, N. Rega, J. M. Millam, M. Klene, J. E. Knox, J. B. Cross, 
 V. Bakken, C. Adamo, J. Jaramillo, R. Gomperts, R. E. Stratmann, 
 O. Yazyev, A. J. Austin, R. Cammi, C. Pomelli, J. W. Ochterski, 
 R. L. Martin, K. Morokuma, V. G. Zakrzewski, G. A. Voth, 
 P. Salvador, J. J. Dannenberg, S. Dapprich, A. D. Daniels, 
 O. Farkas, J. B. Foresman, J. V. Ortiz, J. Cioslowski, 
 and D. J. Fox, Gaussian, Inc., Wallingford CT, 2010.
 
 ******************************************
 Gaussian 09:  EM64L-G09RevB.01 12-Aug-2010
                22-Mar-2019 
 ******************************************
 %mem=16gb
 %nprocshared=20
 Will use up to   20 processors via shared memory.
 %chk=1b-conf-3.chk
 ----------------------------------------------------------------------
 # m062x/6-31+G(d,p) opt freq=noraman integral(ultrafinegrid) scrf=(ief
 pcm,read,solvent=methanol)
 ----------------------------------------------------------------------
 1/14=-1,18=20,19=15,26=3,38=1,40=2/1,3;
 2/9=110,12=2,17=6,18=5,40=1/2;
 3/5=1,6=6,7=111,11=2,16=1,25=1,30=1,70=2203,71=1,72=3,74=-55,75=-5/1,2,3;
 4//1;
 5/5=2,38=5,53=3/2;
 6/7=2,8=2,9=2,10=2,28=1/1;
 7//1,2,3,16;
 1/14=-1,18=20,19=15/3(2);
 2/9=110/2;
 99//99;
 2/9=110/2;
 3/5=1,6=6,7=111,11=2,16=1,25=1,30=1,70=2205,71=1,72=3,74=-55,75=-5/1,2,3;
 4/5=5,16=3/1;
 5/5=2,38=5,53=3/2;
 7//1,2,3,16;
 1/14=-1,18=20,19=15/3(-5);
 2/9=110/2;
 6/7=2,8=2,9=2,10=2,19=2,28=1/1;
 99/9=1/99;
 ----------------------------------------------------------------------
 Candidate Structure: 1b, Conformer: 3 geometry optimization and freque
 ncy calculation with methanol solvation
 ----------------------------------------------------------------------
 Symbolic Z-matrix:
 Charge =  0 Multiplicity = 1
 O                    -0.8794    4.94349   0.2895 
 C                    -1.63687   3.85254  -0.03719 
 C                    -1.12394   2.75114  -0.77829 
 C                     0.28574   2.70582  -1.25623 
 N                     0.76885   1.75244  -1.93728 
 C                     2.17573   2.00445  -2.11236 
 C                     2.66841   1.41082  -3.45844 
 O                     1.78872   1.82974  -4.48413 
 C                     4.1427    1.66879  -3.83421 
 C                     5.12521   1.11288  -2.80258 
 O                     5.50902   2.05312  -1.89955 
 O                     5.50998  -0.05095  -2.79121 
 C                     2.32823   3.51325  -1.81359 
 C                     2.22168   4.50981  -2.98516 
 O                     1.17757   3.71553  -1.01345 
 C                    -1.98001   1.66304  -1.07122 
 C                    -3.31857   1.66599  -0.63899 
 Cl                   -4.346     0.32995  -1.00617 
 C                    -3.81938   2.75755   0.09236 
 C                    -2.97942   3.84614   0.39127 
 H                     0.01325   4.8817   -0.03015 
 H                     2.70146   1.47006  -1.31707 
 H                     2.5418    0.32812  -3.39148 
 H                     0.92091   1.76194  -4.09969 
 H                     4.34346   2.72641  -3.98642 
 H                     4.35862   1.18621  -4.78776 
 H                     6.13318   1.6713   -1.30022 
 H                     3.23287   3.70793  -1.23626 
 H                     1.32136   4.34215  -3.57652 
 H                     2.18241   5.53376  -2.61393 
 H                     3.07366   4.4493   -3.65794 
 H                    -1.61513   0.81389  -1.63074 
 H                    -4.8473    2.75957   0.42411 
 H                    -3.36835   4.68275   0.95369 
 

 GradGradGradGradGradGradGradGradGradGradGradGradGradGradGradGradGradGrad
 Berny optimization.
 Initialization pass.
                           ----------------------------
                           !    Initial Parameters    !
                           ! (Angstroms and Degrees)  !
 --------------------------                            --------------------------
 ! Name  Definition              Value          Derivative Info.                !
 --------------------------------------------------------------------------------
 ! R1    R(1,2)                  1.3677         estimate D2E/DX2                !
 ! R2    R(1,21)                 0.9502         estimate D2E/DX2                !
 ! R3    R(2,3)                  1.4232         estimate D2E/DX2                !
 ! R4    R(2,20)                 1.4093         estimate D2E/DX2                !
 ! R5    R(3,4)                  1.4892         estimate D2E/DX2                !
 ! R6    R(3,16)                 1.4151         estimate D2E/DX2                !
 ! R7    R(4,5)                  1.2673         estimate D2E/DX2                !
 ! R8    R(4,15)                 1.3689         estimate D2E/DX2                !
 ! R9    R(5,6)                  1.44           estimate D2E/DX2                !
 ! R10   R(6,7)                  1.5515         estimate D2E/DX2                !
 ! R11   R(6,13)                 1.5456         estimate D2E/DX2                !
 ! R12   R(6,22)                 1.0929         estimate D2E/DX2                !
 ! R13   R(7,8)                  1.4147         estimate D2E/DX2                !
 ! R14   R(7,9)                  1.5431         estimate D2E/DX2                !
 ! R15   R(7,23)                 1.0921         estimate D2E/DX2                !
 ! R16   R(8,24)                 0.9516         estimate D2E/DX2                !
 ! R17   R(9,10)                 1.5293         estimate D2E/DX2                !
 ! R18   R(9,25)                 1.0872         estimate D2E/DX2                !
 ! R19   R(9,26)                 1.0903         estimate D2E/DX2                !
 ! R20   R(10,11)                1.359          estimate D2E/DX2                !
 ! R21   R(10,12)                1.2258         estimate D2E/DX2                !
 ! R22   R(11,27)                0.9458         estimate D2E/DX2                !
 ! R23   R(13,14)                1.5418         estimate D2E/DX2                !
 ! R24   R(13,15)                1.416          estimate D2E/DX2                !
 ! R25   R(13,28)                1.0907         estimate D2E/DX2                !
 ! R26   R(14,29)                1.0901         estimate D2E/DX2                !
 ! R27   R(14,30)                1.0899         estimate D2E/DX2                !
 ! R28   R(14,31)                1.0873         estimate D2E/DX2                !
 ! R29   R(15,21)                1.919          estimate D2E/DX2                !
 ! R30   R(16,17)                1.4066         estimate D2E/DX2                !
 ! R31   R(16,32)                1.0804         estimate D2E/DX2                !
 ! R32   R(17,18)                1.7249         estimate D2E/DX2                !
 ! R33   R(17,19)                1.4061         estimate D2E/DX2                !
 ! R34   R(19,20)                1.4071         estimate D2E/DX2                !
 ! R35   R(19,33)                1.0801         estimate D2E/DX2                !
 ! R36   R(20,34)                1.0805         estimate D2E/DX2                !
 ! A1    A(2,1,21)             112.834          estimate D2E/DX2                !
 ! A2    A(1,2,3)              122.8255         estimate D2E/DX2                !
 ! A3    A(1,2,20)             117.297          estimate D2E/DX2                !
 ! A4    A(3,2,20)             119.8775         estimate D2E/DX2                !
 ! A5    A(2,3,4)              122.1304         estimate D2E/DX2                !
 ! A6    A(2,3,16)             119.0006         estimate D2E/DX2                !
 ! A7    A(4,3,16)             118.869          estimate D2E/DX2                !
 ! A8    A(3,4,5)              123.7943         estimate D2E/DX2                !
 ! A9    A(3,4,15)             122.5035         estimate D2E/DX2                !
 ! A10   A(5,4,15)             113.6934         estimate D2E/DX2                !
 ! A11   A(4,5,6)              107.8263         estimate D2E/DX2                !
 ! A12   A(5,6,7)              110.4132         estimate D2E/DX2                !
 ! A13   A(5,6,13)             104.1068         estimate D2E/DX2                !
 ! A14   A(5,6,22)             107.2138         estimate D2E/DX2                !
 ! A15   A(7,6,13)             120.6563         estimate D2E/DX2                !
 ! A16   A(7,6,22)             106.9482         estimate D2E/DX2                !
 ! A17   A(13,6,22)            106.809          estimate D2E/DX2                !
 ! A18   A(6,7,8)              108.5587         estimate D2E/DX2                !
 ! A19   A(6,7,9)              116.788          estimate D2E/DX2                !
 ! A20   A(6,7,23)             106.8165         estimate D2E/DX2                !
 ! A21   A(8,7,9)              111.5936         estimate D2E/DX2                !
 ! A22   A(8,7,23)             105.4224         estimate D2E/DX2                !
 ! A23   A(9,7,23)             106.9431         estimate D2E/DX2                !
 ! A24   A(7,8,24)             104.6593         estimate D2E/DX2                !
 ! A25   A(7,9,10)             112.8782         estimate D2E/DX2                !
 ! A26   A(7,9,25)             111.9092         estimate D2E/DX2                !
 ! A27   A(7,9,26)             109.158          estimate D2E/DX2                !
 ! A28   A(10,9,25)            109.234          estimate D2E/DX2                !
 ! A29   A(10,9,26)            107.5686         estimate D2E/DX2                !
 ! A30   A(25,9,26)            105.7567         estimate D2E/DX2                !
 ! A31   A(9,10,11)            112.2221         estimate D2E/DX2                !
 ! A32   A(9,10,12)            123.576          estimate D2E/DX2                !
 ! A33   A(11,10,12)           124.1995         estimate D2E/DX2                !
 ! A34   A(10,11,27)           109.1553         estimate D2E/DX2                !
 ! A35   A(6,13,14)            118.5068         estimate D2E/DX2                !
 ! A36   A(6,13,15)             99.7007         estimate D2E/DX2                !
 ! A37   A(6,13,28)            111.0013         estimate D2E/DX2                !
 ! A38   A(14,13,15)           106.3132         estimate D2E/DX2                !
 ! A39   A(14,13,28)           110.1315         estimate D2E/DX2                !
 ! A40   A(15,13,28)           110.4499         estimate D2E/DX2                !
 ! A41   A(13,14,29)           111.7073         estimate D2E/DX2                !
 ! A42   A(13,14,30)           110.5445         estimate D2E/DX2                !
 ! A43   A(13,14,31)           112.3386         estimate D2E/DX2                !
 ! A44   A(29,14,30)           107.4282         estimate D2E/DX2                !
 ! A45   A(29,14,31)           107.6339         estimate D2E/DX2                !
 ! A46   A(30,14,31)           106.935          estimate D2E/DX2                !
 ! A47   A(4,15,13)            108.8941         estimate D2E/DX2                !
 ! A48   A(3,16,17)            120.6936         estimate D2E/DX2                !
 ! A49   A(3,16,32)            120.4786         estimate D2E/DX2                !
 ! A50   A(17,16,32)           118.8277         estimate D2E/DX2                !
 ! A51   A(16,17,18)           119.9849         estimate D2E/DX2                !
 ! A52   A(16,17,19)           120.0256         estimate D2E/DX2                !
 ! A53   A(18,17,19)           119.9895         estimate D2E/DX2                !
 ! A54   A(17,19,20)           119.8976         estimate D2E/DX2                !
 ! A55   A(17,19,33)           120.0103         estimate D2E/DX2                !
 ! A56   A(20,19,33)           120.0921         estimate D2E/DX2                !
 ! A57   A(2,20,19)            120.5051         estimate D2E/DX2                !
 ! A58   A(2,20,34)            119.8435         estimate D2E/DX2                !
 ! A59   A(19,20,34)           119.6514         estimate D2E/DX2                !
 ! D1    D(21,1,2,3)            -0.0009         estimate D2E/DX2                !
 ! D2    D(21,1,2,20)         -179.9861         estimate D2E/DX2                !
 ! D3    D(1,2,3,4)             -0.0172         estimate D2E/DX2                !
 ! D4    D(1,2,3,16)           179.9791         estimate D2E/DX2                !
 ! D5    D(20,2,3,4)           179.9677         estimate D2E/DX2                !
 ! D6    D(20,2,3,16)           -0.036          estimate D2E/DX2                !
 ! D7    D(1,2,20,19)         -179.9995         estimate D2E/DX2                !
 ! D8    D(1,2,20,34)            0.001          estimate D2E/DX2                !
 ! D9    D(3,2,20,19)            0.0147         estimate D2E/DX2                !
 ! D10   D(3,2,20,34)         -179.9847         estimate D2E/DX2                !
 ! D11   D(2,3,4,5)           -178.7506         estimate D2E/DX2                !
 ! D12   D(2,3,4,15)             0.0956         estimate D2E/DX2                !
 ! D13   D(16,3,4,5)             1.2531         estimate D2E/DX2                !
 ! D14   D(16,3,4,15)         -179.9007         estimate D2E/DX2                !
 ! D15   D(2,3,16,17)            0.0296         estimate D2E/DX2                !
 ! D16   D(2,3,16,32)         -179.8956         estimate D2E/DX2                !
 ! D17   D(4,3,16,17)         -179.974          estimate D2E/DX2                !
 ! D18   D(4,3,16,32)            0.1008         estimate D2E/DX2                !
 ! D19   D(3,4,5,6)           -175.1335         estimate D2E/DX2                !
 ! D20   D(15,4,5,6)             5.9292         estimate D2E/DX2                !
 ! D21   D(3,4,15,13)         -168.1452         estimate D2E/DX2                !
 ! D22   D(5,4,15,13)           10.8077         estimate D2E/DX2                !
 ! D23   D(4,5,6,7)           -149.4505         estimate D2E/DX2                !
 ! D24   D(4,5,6,13)           -18.569          estimate D2E/DX2                !
 ! D25   D(4,5,6,22)            94.3865         estimate D2E/DX2                !
 ! D26   D(5,6,7,8)             49.3681         estimate D2E/DX2                !
 ! D27   D(5,6,7,9)            176.5524         estimate D2E/DX2                !
 ! D28   D(5,6,7,23)           -63.8682         estimate D2E/DX2                !
 ! D29   D(13,6,7,8)           -72.159          estimate D2E/DX2                !
 ! D30   D(13,6,7,9)            55.0254         estimate D2E/DX2                !
 ! D31   D(13,6,7,23)          174.6048         estimate D2E/DX2                !
 ! D32   D(22,6,7,8)           165.6966         estimate D2E/DX2                !
 ! D33   D(22,6,7,9)           -67.119          estimate D2E/DX2                !
 ! D34   D(22,6,7,23)           52.4604         estimate D2E/DX2                !
 ! D35   D(5,6,13,14)          -91.4572         estimate D2E/DX2                !
 ! D36   D(5,6,13,15)           23.1957         estimate D2E/DX2                !
 ! D37   D(5,6,13,28)          139.6384         estimate D2E/DX2                !
 ! D38   D(7,6,13,14)           33.0854         estimate D2E/DX2                !
 ! D39   D(7,6,13,15)          147.7383         estimate D2E/DX2                !
 ! D40   D(7,6,13,28)          -95.8191         estimate D2E/DX2                !
 ! D41   D(22,6,13,14)         155.2969         estimate D2E/DX2                !
 ! D42   D(22,6,13,15)         -90.0502         estimate D2E/DX2                !
 ! D43   D(22,6,13,28)          26.3925         estimate D2E/DX2                !
 ! D44   D(6,7,8,24)           -40.8826         estimate D2E/DX2                !
 ! D45   D(9,7,8,24)          -170.9868         estimate D2E/DX2                !
 ! D46   D(23,7,8,24)           73.2716         estimate D2E/DX2                !
 ! D47   D(6,7,9,10)            59.503          estimate D2E/DX2                !
 ! D48   D(6,7,9,25)           -64.2144         estimate D2E/DX2                !
 ! D49   D(6,7,9,26)           179.0691         estimate D2E/DX2                !
 ! D50   D(8,7,9,10)          -174.8155         estimate D2E/DX2                !
 ! D51   D(8,7,9,25)            61.4671         estimate D2E/DX2                !
 ! D52   D(8,7,9,26)           -55.2495         estimate D2E/DX2                !
 ! D53   D(23,7,9,10)          -60.0086         estimate D2E/DX2                !
 ! D54   D(23,7,9,25)          176.274          estimate D2E/DX2                !
 ! D55   D(23,7,9,26)           59.5574         estimate D2E/DX2                !
 ! D56   D(7,9,10,11)          -95.1556         estimate D2E/DX2                !
 ! D57   D(7,9,10,12)           84.3094         estimate D2E/DX2                !
 ! D58   D(25,9,10,11)          30.0256         estimate D2E/DX2                !
 ! D59   D(25,9,10,12)        -150.5093         estimate D2E/DX2                !
 ! D60   D(26,9,10,11)         144.3653         estimate D2E/DX2                !
 ! D61   D(26,9,10,12)         -36.1696         estimate D2E/DX2                !
 ! D62   D(9,10,11,27)        -178.3453         estimate D2E/DX2                !
 ! D63   D(12,10,11,27)          2.1936         estimate D2E/DX2                !
 ! D64   D(6,13,14,29)          51.0725         estimate D2E/DX2                !
 ! D65   D(6,13,14,30)         170.6409         estimate D2E/DX2                !
 ! D66   D(6,13,14,31)         -69.9982         estimate D2E/DX2                !
 ! D67   D(15,13,14,29)        -59.9506         estimate D2E/DX2                !
 ! D68   D(15,13,14,30)         59.6178         estimate D2E/DX2                !
 ! D69   D(15,13,14,31)        178.9787         estimate D2E/DX2                !
 ! D70   D(28,13,14,29)       -179.6215         estimate D2E/DX2                !
 ! D71   D(28,13,14,30)        -60.0531         estimate D2E/DX2                !
 ! D72   D(28,13,14,31)         59.3078         estimate D2E/DX2                !
 ! D73   D(6,13,15,4)          -20.5635         estimate D2E/DX2                !
 ! D74   D(14,13,15,4)         103.1146         estimate D2E/DX2                !
 ! D75   D(28,13,15,4)        -137.4219         estimate D2E/DX2                !
 ! D76   D(3,16,17,18)        -179.9959         estimate D2E/DX2                !
 ! D77   D(3,16,17,19)          -0.0015         estimate D2E/DX2                !
 ! D78   D(32,16,17,18)         -0.0695         estimate D2E/DX2                !
 ! D79   D(32,16,17,19)        179.9249         estimate D2E/DX2                !
 ! D80   D(16,17,19,20)         -0.0203         estimate D2E/DX2                !
 ! D81   D(16,17,19,33)        179.998          estimate D2E/DX2                !
 ! D82   D(18,17,19,20)        179.974          estimate D2E/DX2                !
 ! D83   D(18,17,19,33)         -0.0076         estimate D2E/DX2                !
 ! D84   D(17,19,20,2)           0.0136         estimate D2E/DX2                !
 ! D85   D(17,19,20,34)       -179.9869         estimate D2E/DX2                !
 ! D86   D(33,19,20,2)         179.9953         estimate D2E/DX2                !
 ! D87   D(33,19,20,34)         -0.0052         estimate D2E/DX2                !
 --------------------------------------------------------------------------------
 Trust Radius=3.00D-01 FncErr=1.00D-07 GrdErr=1.00D-06
 Number of steps in this run=    192 maximum allowed number of steps=    204.
 GradGradGradGradGradGradGradGradGradGradGradGradGradGradGradGradGradGrad

                          Input orientation:                          
 ---------------------------------------------------------------------
 Center     Atomic      Atomic             Coordinates (Angstroms)
 Number     Number       Type             X           Y           Z
 ---------------------------------------------------------------------
      1          8           0       -0.879403    4.943492    0.289500
      2          6           0       -1.636866    3.852543   -0.037187
      3          6           0       -1.123937    2.751137   -0.778294
      4          6           0        0.285740    2.705815   -1.256228
      5          7           0        0.768852    1.752444   -1.937283
      6          6           0        2.175733    2.004450   -2.112363
      7          6           0        2.668409    1.410818   -3.458443
      8          8           0        1.788723    1.829744   -4.484134
      9          6           0        4.142696    1.668794   -3.834207
     10          6           0        5.125215    1.112879   -2.802576
     11          8           0        5.509016    2.053123   -1.899551
     12          8           0        5.509976   -0.050952   -2.791214
     13          6           0        2.328227    3.513248   -1.813589
     14          6           0        2.221683    4.509812   -2.985163
     15          8           0        1.177566    3.715531   -1.013450
     16          6           0       -1.980008    1.663038   -1.071218
     17          6           0       -3.318573    1.665994   -0.638988
     18         17           0       -4.345999    0.329949   -1.006166
     19          6           0       -3.819382    2.757545    0.092356
     20          6           0       -2.979424    3.846137    0.391267
     21          1           0        0.013247    4.881700   -0.030152
     22          1           0        2.701464    1.470063   -1.317069
     23          1           0        2.541798    0.328119   -3.391477
     24          1           0        0.920906    1.761939   -4.099694
     25          1           0        4.343459    2.726410   -3.986416
     26          1           0        4.358620    1.186213   -4.787760
     27          1           0        6.133179    1.671301   -1.300221
     28          1           0        3.232870    3.707925   -1.236257
     29          1           0        1.321357    4.342146   -3.576519
     30          1           0        2.182410    5.533762   -2.613932
     31          1           0        3.073657    4.449305   -3.657940
     32          1           0       -1.615127    0.813890   -1.630744
     33          1           0       -4.847303    2.759571    0.424112
     34          1           0       -3.368349    4.682750    0.953687
 ---------------------------------------------------------------------
                    Distance matrix (angstroms):
                    1          2          3          4          5
     1  O    0.000000
     2  C    1.367715   0.000000
     3  C    2.450796   1.423176   0.000000
     4  C    2.958721   2.549012   1.489182   0.000000
     5  N    4.225884   3.715947   2.433782   1.267339   0.000000
     6  C    4.872450   4.717808   3.636634   2.190195   1.439956
     7  C    6.254105   6.016844   4.833378   3.493405   2.457428
     8  O    6.293004   5.966717   4.802687   3.666856   2.744551
     9  C    7.276681   7.251859   6.184456   4.753683   3.871452
    10  C    7.764661   7.802492   6.770045   5.324393   4.487279
    11  O    7.345616   7.600654   6.763173   5.303064   4.749841
    12  O    8.675220   8.596470   7.477456   6.103162   5.143899
    13  C    4.093589   4.358060   3.683760   2.265911   2.355288
    14  C    4.530809   4.900099   4.376800   3.160933   3.288138
    15  O    2.727029   2.982095   2.506446   1.368876   2.207765
    16  C    3.718099   2.445588   1.415140   2.501045   2.883452
    17  C    4.189706   2.823349   2.452217   3.801748   4.289532
    18  Cl   5.914458   4.548295   4.036801   5.211552   5.390007
    19  C    3.668884   2.445236   2.832578   4.321271   5.116791
    20  C    2.371631   1.409282   2.451475   3.830910   4.884186
    21  H    0.950168   1.944759   2.528281   2.512367   3.741702
    22  H    5.241029   5.112281   4.070027   2.714131   2.049242
    23  H    6.823187   6.413584   5.112471   3.911844   2.699392
    24  H    5.712129   5.236104   4.023878   3.062619   2.167771
    25  H    7.104731   7.254576   6.339170   4.890750   4.233836
    26  H    8.205644   8.100809   6.970168   5.600827   4.618687
    27  H    7.900048   8.168639   7.355555   5.938409   5.402632
    28  H    4.556901   5.017271   4.484076   3.112908   3.222845
    29  H    4.488994   4.638714   4.042380   3.022223   3.114308
    30  H    4.260638   4.904384   4.695157   3.665788   4.093210
    31  H    5.608314   5.971181   5.366184   4.071911   3.942822
    32  H    4.613268   3.431226   2.172755   2.707940   2.580350
    33  H    4.531210   3.422615   3.912711   5.401348   6.175086
    34  H    2.589205   2.160812   3.430492   4.705780   5.836166
                    6          7          8          9         10
     6  C    0.000000
     7  C    1.551470   0.000000
     8  O    2.409481   1.414704   0.000000
     9  C    2.635594   1.543137   2.447345   0.000000
    10  C    3.157647   2.560239   3.804433   1.529264   0.000000
    11  O    3.340424   3.303294   4.535477   2.399465   1.358976
    12  O    3.975260   3.264425   4.500080   2.432039   1.225836
    13  C    1.545636   2.691000   3.202665   3.282865   3.816151
    14  C    2.653437   3.166595   3.101150   3.533065   4.472470
    15  O    2.265336   3.675909   3.996918   4.575784   5.055561
    16  C    4.297759   5.231657   5.087152   6.717265   7.333790
    17  C    5.698490   6.622567   6.395032   8.116648   8.734106
    18  Cl   6.823534   7.508919   7.209748   9.047003   9.671813
    19  C    6.431900   7.517531   7.297665   8.944158   9.544180
    20  C    6.019603   7.255967   7.111301   8.562713   9.129978
    21  H    4.158187   5.554285   5.683723   6.468844   6.929831
    22  H    1.092911   2.142448   3.315534   2.907340   2.865114
    23  H    2.140145   1.092132   2.003971   2.134548   2.763457
    24  H    2.362813   1.894269   0.951577   3.234052   4.447472
    25  H    2.955053   2.194386   2.752891   1.087210   2.148512
    26  H    3.548557   2.162023   2.666588   1.090308   2.129319
    27  H    4.053633   4.090282   5.388572   3.222284   1.893382
    28  H    2.187905   3.245524   4.020178   3.425665   3.573316
    29  H    2.887652   3.228184   2.711892   3.895275   5.049405
    30  H    3.564780   4.236515   4.168020   4.502196   5.314122
    31  H    3.028596   3.071877   3.032450   2.984151   4.009024
    32  H    4.002500   4.695262   4.556313   6.224037   6.847977
    33  H    7.505128   8.566172   8.306160  10.007155  10.610100
    34  H    6.878285   8.161794   8.019036   9.403385   9.949579
                   11         12         13         14         15
    11  O    0.000000
    12  O    2.285212   0.000000
    13  C    3.500967   4.876761   0.000000
    14  C    4.245048   5.625927   1.541777   0.000000
    15  O    4.723371   6.009710   1.416037   2.368273   0.000000
    16  C    7.544785   7.873754   4.747134   5.424160   3.766476
    17  C    8.925537   9.247879   6.056268   6.654793   4.955410
    18  Cl  10.044341  10.023559   7.438455   8.032567   6.478579
    19  C    9.564670  10.160687   6.480495   7.002573   5.206730
    20  C    8.973091   9.868404   5.757027   6.236366   4.389858
    21  H    6.457475   7.884703   3.226831   3.707773   1.918975
    22  H    2.926020   3.517717   2.135519   3.500400   2.730673
    23  H    3.742441   3.051900   3.560954   4.213564   4.357832
    24  H    5.096682   5.104729   3.205294   3.238056   3.661598
    25  H    2.483313   3.240835   3.066179   2.947026   4.454185
    26  H    3.227491   2.615797   4.287573   4.343060   5.546347
    27  H    0.945814   2.361694   4.258401   5.118200   5.368353
    28  H    2.891223   4.661787   1.090683   2.173521   2.067360
    29  H    5.058491   6.120502   2.192893   1.090138   2.642469
    30  H    4.867391   6.503319   2.178139   1.089875   2.622445
    31  H    3.842472   5.190296   2.198522   1.087267   3.335703
    32  H    7.236116   7.270608   4.782260   5.496854   4.074274
    33  H   10.637285  11.203151   7.554043   8.040962   6.267335
    34  H    9.688318  10.735775   6.440227   6.840534   5.046829
                   16         17         18         19         20
    16  C    0.000000
    17  C    1.406623   0.000000
    18  Cl   2.716481   1.724946   0.000000
    19  C    2.436216   1.406114   2.716118   0.000000
    20  C    2.811337   2.435050   4.022925   1.407093   0.000000
    21  H    3.926407   4.670382   6.377622   4.383616   3.194693
    22  H    4.691893   6.061273   7.145856   6.794521   6.390354
    23  H    5.254745   6.611358   7.289133   7.648779   7.561051
    24  H    4.194848   5.473470   6.273819   6.405845   6.302792
    25  H    7.043818   8.428315   9.493766   9.125203   8.604796
    26  H    7.363304   8.739668   9.529115   9.652167   9.367198
    27  H    8.116422   9.474855  10.568768  10.108050   9.520009
    28  H    5.602044   6.888223   8.300778   7.238970   6.423436
    29  H    4.934892   6.108996   7.404280   6.511436   5.872484
    30  H    5.889668   7.008627   8.502041   7.145130   6.206757
    31  H    6.324077   7.597466   8.891136   8.027500   7.307508
    32  H    1.080398   2.147415   2.842879   3.406701   3.891575
    33  H    3.414642   2.159423   2.863575   1.080133   2.161175
    34  H    3.891837   3.411731   4.872751   2.156788   1.080509
                   21         22         23         24         25
    21  H    0.000000
    22  H    4.530114   0.000000
    23  H    6.198966   2.373331   0.000000
    24  H    5.207487   3.316411   2.276994   0.000000
    25  H    6.248843   3.376384   3.058061   3.557654   0.000000
    26  H    7.427902   3.856479   2.446788   3.552854   1.736257
    27  H    7.026614   3.437652   4.367552   5.917183   3.395879
    28  H    3.632962   2.301510   4.067634   4.163089   3.124125
    29  H    3.818244   3.906235   4.199539   2.662995   3.451336
    30  H    3.436040   4.297083   5.275647   4.245648   3.799351
    31  H    4.765912   3.807110   4.163898   3.471515   2.165332
    32  H    4.664823   4.377432   4.540504   3.664147   6.686679
    33  H    5.323038   7.853561   8.664265   7.398130  10.194310
    34  H    3.527423   7.233279   8.530715   7.243308   9.365034
                   26         27         28         29         30
    26  H    0.000000
    27  H    3.943006   0.000000
    28  H    4.498835   3.544534   0.000000
    29  H    4.544445   5.955550   3.087547   0.000000
    30  H    5.325655   5.679174   2.516969   1.757252   0.000000
    31  H    3.684480   4.757817   2.537625   1.757461   1.749377
    32  H    6.766907   7.802605   5.659870   4.985737   6.137193
    33  H   10.695236  11.168198   8.303336   7.520768   8.145104
    34  H   10.241877  10.219000   7.022979   6.529328   6.653048
                   31         32         33         34
    31  H    0.000000
    32  H    6.269806   0.000000
    33  H    9.069727   4.295936   0.000000
    34  H    7.925973   4.972037   2.483218   0.000000
 Stoichiometry    C13H14ClNO5
 Framework group  C1[X(C13H14ClNO5)]
 Deg. of freedom    96
 Full point group                 C1      NOp   1
 Largest Abelian subgroup         C1      NOp   1
 Largest concise Abelian subgroup C1      NOp   1
                         Standard orientation:                         
 ---------------------------------------------------------------------
 Center     Atomic      Atomic             Coordinates (Angstroms)
 Number     Number       Type             X           Y           Z
 ---------------------------------------------------------------------
      1          8           0        2.090505    2.894261   -0.291815
      2          6           0        2.647640    1.646282   -0.238958
      3          6           0        1.869857    0.456587   -0.167462
      4          6           0        0.381102    0.483816   -0.144424
      5          7           0       -0.341654   -0.553665   -0.058351
      6          6           0       -1.716753   -0.144372   -0.181056
      7          6           0       -2.638286   -1.093726    0.629229
      8          8           0       -2.104307   -1.236397    1.931496
      9          6           0       -4.140002   -0.740575    0.666740
     10          6           0       -4.776898   -0.703341   -0.723088
     11          8           0       -4.806840    0.552618   -1.241246
     12          8           0       -5.200145   -1.697681   -1.301726
     13          6           0       -1.686921    1.371406    0.119808
     14          6           0       -1.900785    1.837331    1.573856
     15          8           0       -0.334087    1.650023   -0.192238
     16          6           0        2.531218   -0.793469   -0.116635
     17          6           0        3.935949   -0.863874   -0.135618
     18         17           0        4.723175   -2.397429   -0.072986
     19          6           0        4.698651    0.315332   -0.205747
     20          6           0        4.054470    1.565245   -0.257307
     21          1           0        1.140671    2.875018   -0.275557
     22          1           0       -1.993765   -0.252448   -1.232740
     23          1           0       -2.555019   -2.081729    0.171334
     24          1           0       -1.164576   -1.307805    1.799956
     25          1           0       -4.321673    0.206161    1.169444
     26          1           0       -4.669974   -1.492818    1.251574
     27          1           0       -5.230571    0.529598   -2.086518
     28          1           0       -2.352657    1.916188   -0.550712
     29          1           0       -1.242105    1.312889    2.266316
     30          1           0       -1.692296    2.902871    1.668638
     31          1           0       -2.922926    1.683397    1.911024
     32          1           0        1.964270   -1.711634   -0.063702
     33          1           0        5.777318    0.260982   -0.220278
     34          1           0        4.644449    2.468851   -0.311348
 ---------------------------------------------------------------------
 Rotational constants (GHZ):      0.5853382      0.1403468      0.1235792
 Standard basis: 6-31+G(d,p) (6D, 7F)
 There are   454 symmetry adapted basis functions of A   symmetry.
 Integral buffers will be    131072 words long.
 Raffenetti 2 integral format.
 Two-electron integral symmetry is turned on.
   454 basis functions,   762 primitive gaussians,   454 cartesian basis functions
    78 alpha electrons       78 beta electrons
       nuclear repulsion energy      1671.9716370819 Hartrees.
 NAtoms=   34 NActive=   34 NUniq=   34 SFac= 1.00D+00 NAtFMM=   50 NAOKFM=F Big=F
 Using the following non-standard input for PCM:
 radii=UA0
 --- end of non-standard input.
 ------------------------------------------------------------------------------
 United Atom Topological Model (UA0  parameters set).
  Nord Group  Hybr  Charge Alpha Radius          Bonded to
    1   OH    *     0.00   1.10  1.850   C2   [s]
    2   C     *     0.00   1.10  1.925   O1   [s]  C3   [s]  C20  [s]
    3   C     *     0.00   1.10  1.925   C2   [s]  C4   [s]  C16  [s]
    4   C     *     0.00   1.10  1.925   C3   [s]  N5   [d]  O15  [s]
    5   N     *     0.00   1.10  1.830   C4   [d]  C6   [s]
    6   CH    *     0.00   1.10  2.125   N5   [s]  C7   [s]  C13  [s]
    7   CH    *     0.00   1.10  2.125   C6   [s]  O8   [s]  C9   [s]
    8   OH    *     0.00   1.10  1.850   C7   [s]
    9   CH2   *     0.00   1.10  2.325   C7   [s]  C10  [s]
   10   C     *     0.00   1.10  1.925   C9   [s]  O11  [s]  O12  [d]
   11   OH    *     0.00   1.10  1.850   C10  [s]
   12   O     *     0.00   1.10  1.750   C10  [d]
   13   CH    *     0.00   1.10  2.125   C6   [s]  C14  [s]  O15  [s]
   14   CH3   *     0.00   1.10  2.525   C13  [s]
   15   O     *     0.00   1.10  1.750   C4   [s]  C13  [s]
   16   CH    *     0.00   1.10  2.125   C3   [s]  C17  [s]
   17   C     *     0.00   1.10  1.925   C16  [s] Cl18  [s]  C19  [s]
   18  Cl     *     0.00   1.10  1.973   C17  [s]
   19   CH    *     0.00   1.10  2.125   C17  [s]  C20  [s]
   20   CH    *     0.00   1.10  2.125   C2   [s]  C19  [s]
 ------------------------------------------------------------------------------
 Polarizable Continuum Model (PCM)
 =================================
 Model                : PCM.
 Atomic radii         : UA0 (Simple United Atom Topological Model).
 Polarization charges : Total charges.
 Charge compensation  : None.
 Solution method      : Matrix inversion.
 Cavity type          : Scaled VdW (van der Waals Surface) (Alpha=1.100).
 Cavity algorithm     : GePol (No added spheres)
                        Default sphere list used, NSphG=   20.
                        Lebedev-Laikov grids with approx.  5.0 points / Ang**2.
                        Smoothing algorithm: Karplus/York (Gamma=1.0000).
                        Polarization charges: spherical gaussians, with
                                              point-specific exponents (IZeta= 3).
                        Self-potential: point-specific (ISelfS= 7).
                        Self-field    : sphere-specific E.n sum rule (ISelfD= 2).
 1st derivatives      : Analytical E(r).r(x)/FMM algorithm (CHGder, D1EAlg=3).
                        Cavity 1st derivative terms included.
 Solvent              : Methanol, Eps=  32.613000 Eps(inf)=   1.765709
 ------------------------------------------------------------------------------
 Spheres list:
 ISph  on   Nord    Re0     Alpha      Xe            Ye            Ze
    1   O      1    1.850   1.100      2.090505      2.894261     -0.291815
    2   C      2    1.925   1.100      2.647640      1.646282     -0.238958
    3   C      3    1.925   1.100      1.869857      0.456587     -0.167462
    4   C      4    1.925   1.100      0.381102      0.483816     -0.144424
    5   N      5    1.830   1.100     -0.341654     -0.553665     -0.058351
    6   C      6    2.125   1.100     -1.716753     -0.144372     -0.181056
    7   C      7    2.125   1.100     -2.638286     -1.093726      0.629229
    8   O      8    1.850   1.100     -2.104307     -1.236397      1.931496
    9   C      9    2.325   1.100     -4.140002     -0.740575      0.666740
   10   C     10    1.925   1.100     -4.776898     -0.703341     -0.723088
   11   O     11    1.850   1.100     -4.806840      0.552618     -1.241246
   12   O     12    1.750   1.100     -5.200145     -1.697681     -1.301726
   13   C     13    2.125   1.100     -1.686921      1.371406      0.119808
   14   C     14    2.525   1.100     -1.900785      1.837331      1.573856
   15   O     15    1.750   1.100     -0.334087      1.650023     -0.192238
   16   C     16    2.125   1.100      2.531218     -0.793469     -0.116635
   17   C     17    1.925   1.100      3.935949     -0.863874     -0.135618
   18  Cl     18    1.973   1.100      4.723175     -2.397429     -0.072986
   19   C     19    2.125   1.100      4.698651      0.315332     -0.205747
   20   C     20    2.125   1.100      4.054470      1.565245     -0.257307
 ------------------------------------------------------------------------------
 One-electron integrals computed using PRISM.
 NBasis=   454 RedAO= T  NBF=   454
 NBsUse=   452 1.00D-06 NBFU=   452
 Harris functional with IExCor= 1009 diagonalized for initial guess.
 ExpMin= 4.38D-02 ExpMax= 2.52D+04 ExpMxC= 3.78D+03 IAcc=3 IRadAn=         5 AccDes= 0.00D+00
 HarFok:  IExCor= 1009 AccDes= 0.00D+00 IRadAn=         5 IDoV= 1
 ScaDFX=  1.000000  1.000000  1.000000  1.000000
 FoFCou: FMM=F IPFlag=           0 FMFlag=      100000 FMFlg1=           0
         NFxFlg=           0 DoJE=T BraDBF=F KetDBF=T FulRan=T
         Omega=  0.000000  0.000000  1.000000  0.000000  0.000000 ICntrl=     500 IOpCl=  0
         NMat0=    1 NMatS0=    1 NMatT0=    0 NMatD0=    1 NMtDS0=    0 NMtDT0=    0
         I1Cent=           4 NGrid=           0.
 Petite list used in FoFCou.
 Initial guess orbital symmetries:
       Occupied  (A) (A) (A) (A) (A) (A) (A) (A) (A) (A) (A) (A)
                 (A) (A) (A) (A) (A) (A) (A) (A) (A) (A) (A) (A)
                 (A) (A) (A) (A) (A) (A) (A) (A) (A) (A) (A) (A)
                 (A) (A) (A) (A) (A) (A) (A) (A) (A) (A) (A) (A)
                 (A) (A) (A) (A) (A) (A) (A) (A) (A) (A) (A) (A)
                 (A) (A) (A) (A) (A) (A) (A) (A) (A) (A) (A) (A)
                 (A) (A) (A) (A) (A) (A)
       Virtual   (A) (A) (A) (A) (A) (A) (A) (A) (A) (A) (A) (A)
                 (A) (A) (A) (A) (A) (A) (A) (A) (A) (A) (A) (A)
                 (A) (A) (A) (A) (A) (A) (A) (A) (A) (A) (A) (A)
                 (A) (A) (A) (A) (A) (A) (A) (A) (A) (A) (A) (A)
                 (A) (A) (A) (A) (A) (A) (A) (A) (A) (A) (A) (A)
                 (A) (A) (A) (A) (A) (A) (A) (A) (A) (A) (A) (A)
                 (A) (A) (A) (A) (A) (A) (A) (A) (A) (A) (A) (A)
                 (A) (A) (A) (A) (A) (A) (A) (A) (A) (A) (A) (A)
                 (A) (A) (A) (A) (A) (A) (A) (A) (A) (A) (A) (A)
                 (A) (A) (A) (A) (A) (A) (A) (A) (A) (A) (A) (A)
                 (A) (A) (A) (A) (A) (A) (A) (A) (A) (A) (A) (A)
                 (A) (A) (A) (A) (A) (A) (A) (A) (A) (A) (A) (A)
                 (A) (A) (A) (A) (A) (A) (A) (A) (A) (A) (A) (A)
                 (A) (A) (A) (A) (A) (A) (A) (A) (A) (A) (A) (A)
                 (A) (A) (A) (A) (A) (A) (A) (A) (A) (A) (A) (A)
                 (A) (A) (A) (A) (A) (A) (A) (A) (A) (A) (A) (A)
                 (A) (A) (A) (A) (A) (A) (A) (A) (A) (A) (A) (A)
                 (A) (A) (A) (A) (A) (A) (A) (A) (A) (A) (A) (A)
                 (A) (A) (A) (A) (A) (A) (A) (A) (A) (A) (A) (A)
                 (A) (A) (A) (A) (A) (A) (A) (A) (A) (A) (A) (A)
                 (A) (A) (A) (A) (A) (A) (A) (A) (A) (A) (A) (A)
                 (A) (A) (A) (A) (A) (A) (A) (A) (A) (A) (A) (A)
                 (A) (A) (A) (A) (A) (A) (A) (A) (A) (A) (A) (A)
                 (A) (A) (A) (A) (A) (A) (A) (A) (A) (A) (A) (A)
                 (A) (A) (A) (A) (A) (A) (A) (A) (A) (A) (A) (A)
                 (A) (A) (A) (A) (A) (A) (A) (A) (A) (A) (A) (A)
                 (A) (A) (A) (A) (A) (A) (A) (A) (A) (A) (A) (A)
                 (A) (A) (A) (A) (A) (A) (A) (A) (A) (A) (A) (A)
                 (A) (A) (A) (A) (A) (A) (A) (A) (A) (A) (A) (A)
                 (A) (A) (A) (A) (A) (A) (A) (A) (A) (A) (A) (A)
                 (A) (A) (A) (A) (A) (A) (A) (A) (A) (A) (A) (A)
                 (A) (A)
 The electronic state of the initial guess is 1-A.
 Requested convergence on RMS density matrix=1.00D-08 within 128 cycles.
 Requested convergence on MAX density matrix=1.00D-06.
 Requested convergence on             energy=1.00D-06.
 No special actions if energy rises.
 Error on total polarization charges =  0.01526
 SCF Done:  E(RM062X) =  -1394.55264847     A.U. after   16 cycles
             Convg  =    0.2710D-08             -V/T =  2.0067

 **********************************************************************

            Population analysis using the SCF density.

 **********************************************************************

 Orbital symmetries:
       Occupied  (A) (A) (A) (A) (A) (A) (A) (A) (A) (A) (A) (A)
                 (A) (A) (A) (A) (A) (A) (A) (A) (A) (A) (A) (A)
                 (A) (A) (A) (A) (A) (A) (A) (A) (A) (A) (A) (A)
                 (A) (A) (A) (A) (A) (A) (A) (A) (A) (A) (A) (A)
                 (A) (A) (A) (A) (A) (A) (A) (A) (A) (A) (A) (A)
                 (A) (A) (A) (A) (A) (A) (A) (A) (A) (A) (A) (A)
                 (A) (A) (A) (A) (A) (A)
       Virtual   (A) (A) (A) (A) (A) (A) (A) (A) (A) (A) (A) (A)
                 (A) (A) (A) (A) (A) (A) (A) (A) (A) (A) (A) (A)
                 (A) (A) (A) (A) (A) (A) (A) (A) (A) (A) (A) (A)
                 (A) (A) (A) (A) (A) (A) (A) (A) (A) (A) (A) (A)
                 (A) (A) (A) (A) (A) (A) (A) (A) (A) (A) (A) (A)
                 (A) (A) (A) (A) (A) (A) (A) (A) (A) (A) (A) (A)
                 (A) (A) (A) (A) (A) (A) (A) (A) (A) (A) (A) (A)
                 (A) (A) (A) (A) (A) (A) (A) (A) (A) (A) (A) (A)
                 (A) (A) (A) (A) (A) (A) (A) (A) (A) (A) (A) (A)
                 (A) (A) (A) (A) (A) (A) (A) (A) (A) (A) (A) (A)
                 (A) (A) (A) (A) (A) (A) (A) (A) (A) (A) (A) (A)
                 (A) (A) (A) (A) (A) (A) (A) (A) (A) (A) (A) (A)
                 (A) (A) (A) (A) (A) (A) (A) (A) (A) (A) (A) (A)
                 (A) (A) (A) (A) (A) (A) (A) (A) (A) (A) (A) (A)
                 (A) (A) (A) (A) (A) (A) (A) (A) (A) (A) (A) (A)
                 (A) (A) (A) (A) (A) (A) (A) (A) (A) (A) (A) (A)
                 (A) (A) (A) (A) (A) (A) (A) (A) (A) (A) (A) (A)
                 (A) (A) (A) (A) (A) (A) (A) (A) (A) (A) (A) (A)
                 (A) (A) (A) (A) (A) (A) (A) (A) (A) (A) (A) (A)
                 (A) (A) (A) (A) (A) (A) (A) (A) (A) (A) (A) (A)
                 (A) (A) (A) (A) (A) (A) (A) (A) (A) (A) (A) (A)
                 (A) (A) (A) (A) (A) (A) (A) (A) (A) (A) (A) (A)
                 (A) (A) (A) (A) (A) (A) (A) (A) (A) (A) (A) (A)
                 (A) (A) (A) (A) (A) (A) (A) (A) (A) (A) (A) (A)
                 (A) (A) (A) (A) (A) (A) (A) (A) (A) (A) (A) (A)
                 (A) (A) (A) (A) (A) (A) (A) (A) (A) (A) (A) (A)
                 (A) (A) (A) (A) (A) (A) (A) (A) (A) (A) (A) (A)
                 (A) (A) (A) (A) (A) (A) (A) (A) (A) (A) (A) (A)
                 (A) (A) (A) (A) (A) (A) (A) (A) (A) (A) (A) (A)
                 (A) (A) (A) (A) (A) (A) (A) (A) (A) (A) (A) (A)
                 (A) (A) (A) (A) (A) (A) (A) (A) (A) (A) (A) (A)
                 (A) (A)
 The electronic state is 1-A.
 Alpha  occ. eigenvalues -- -102.68340 -19.70744 -19.70602 -19.68519 -19.66158
 Alpha  occ. eigenvalues --  -19.65130 -14.76680 -10.71433 -10.67601 -10.64947
 Alpha  occ. eigenvalues --  -10.62778 -10.62524 -10.62354 -10.60047 -10.59564
 Alpha  occ. eigenvalues --  -10.58938 -10.58664 -10.57695 -10.57622 -10.54639
 Alpha  occ. eigenvalues --   -9.83021  -7.55424  -7.54762  -7.54751  -1.25078
 Alpha  occ. eigenvalues --   -1.24602  -1.19817  -1.16444  -1.15494  -1.04391
 Alpha  occ. eigenvalues --   -1.00885  -0.95397  -0.92145  -0.89081  -0.86760
 Alpha  occ. eigenvalues --   -0.83723  -0.81223  -0.77128  -0.73836  -0.72115
 Alpha  occ. eigenvalues --   -0.70491  -0.67887  -0.67604  -0.64027  -0.61658
 Alpha  occ. eigenvalues --   -0.60312  -0.59812  -0.59009  -0.57815  -0.56007
 Alpha  occ. eigenvalues --   -0.55761  -0.55054  -0.53735  -0.53172  -0.52537
 Alpha  occ. eigenvalues --   -0.51278  -0.50258  -0.49249  -0.48264  -0.47910
 Alpha  occ. eigenvalues --   -0.47366  -0.46562  -0.46387  -0.46104  -0.45426
 Alpha  occ. eigenvalues --   -0.44393  -0.43226  -0.42164  -0.41397  -0.40766
 Alpha  occ. eigenvalues --   -0.39269  -0.38908  -0.37501  -0.37239  -0.34963
 Alpha  occ. eigenvalues --   -0.34562  -0.31465  -0.28795
 Alpha virt. eigenvalues --   -0.03635   0.00549   0.00776   0.01539   0.01903
 Alpha virt. eigenvalues --    0.02143   0.02837   0.03037   0.03431   0.04410
 Alpha virt. eigenvalues --    0.04691   0.04840   0.05080   0.05552   0.06175
 Alpha virt. eigenvalues --    0.06542   0.06901   0.07237   0.07771   0.08155
 Alpha virt. eigenvalues --    0.08751   0.09096   0.09497   0.09653   0.09798
 Alpha virt. eigenvalues --    0.10436   0.10950   0.11450   0.11766   0.12570
 Alpha virt. eigenvalues --    0.12851   0.13178   0.13881   0.14215   0.14642
 Alpha virt. eigenvalues --    0.14833   0.15016   0.15197   0.15992   0.16376
 Alpha virt. eigenvalues --    0.16761   0.17089   0.17590   0.18090   0.18629
 Alpha virt. eigenvalues --    0.18821   0.19185   0.19500   0.20209   0.20439
 Alpha virt. eigenvalues --    0.20823   0.20825   0.21558   0.21877   0.22271
 Alpha virt. eigenvalues --    0.22362   0.22712   0.23251   0.23456   0.23809
 Alpha virt. eigenvalues --    0.23932   0.24346   0.25229   0.25526   0.25661
 Alpha virt. eigenvalues --    0.26397   0.26562   0.26878   0.27283   0.27725
 Alpha virt. eigenvalues --    0.27916   0.28076   0.28529   0.29119   0.29473
 Alpha virt. eigenvalues --    0.30068   0.30415   0.30633   0.31052   0.31515
 Alpha virt. eigenvalues --    0.31623   0.32075   0.32425   0.32614   0.33289
 Alpha virt. eigenvalues --    0.33565   0.33924   0.34076   0.35113   0.35513
 Alpha virt. eigenvalues --    0.36083   0.36660   0.37030   0.37751   0.38390
 Alpha virt. eigenvalues --    0.38959   0.39882   0.40284   0.40764   0.41360
 Alpha virt. eigenvalues --    0.41774   0.42261   0.42865   0.43251   0.43719
 Alpha virt. eigenvalues --    0.44960   0.45425   0.46023   0.47613   0.48905
 Alpha virt. eigenvalues --    0.49146   0.49613   0.51024   0.54354   0.54966
 Alpha virt. eigenvalues --    0.55533   0.59277   0.60915   0.64461   0.66938
 Alpha virt. eigenvalues --    0.67939   0.69894   0.70939   0.71260   0.72184
 Alpha virt. eigenvalues --    0.72519   0.73861   0.74190   0.74588   0.75392
 Alpha virt. eigenvalues --    0.75699   0.76759   0.77230   0.77688   0.79090
 Alpha virt. eigenvalues --    0.79411   0.80259   0.81550   0.81607   0.82923
 Alpha virt. eigenvalues --    0.82995   0.84443   0.84986   0.86461   0.87003
 Alpha virt. eigenvalues --    0.88788   0.89892   0.91243   0.91873   0.92232
 Alpha virt. eigenvalues --    0.93147   0.94697   0.94937   0.97567   0.97915
 Alpha virt. eigenvalues --    0.98722   0.98980   1.00515   1.02970   1.03337
 Alpha virt. eigenvalues --    1.03908   1.04202   1.05785   1.06951   1.07415
 Alpha virt. eigenvalues --    1.07937   1.10329   1.11400   1.12963   1.14049
 Alpha virt. eigenvalues --    1.14058   1.15256   1.16148   1.16934   1.17844
 Alpha virt. eigenvalues --    1.19100   1.19352   1.20752   1.20975   1.21857
 Alpha virt. eigenvalues --    1.22911   1.24456   1.25448   1.26541   1.26636
 Alpha virt. eigenvalues --    1.27219   1.27557   1.28861   1.29275   1.30760
 Alpha virt. eigenvalues --    1.32228   1.34430   1.35134   1.36266   1.36352
 Alpha virt. eigenvalues --    1.36973   1.37927   1.38680   1.39679   1.40140
 Alpha virt. eigenvalues --    1.40227   1.41368   1.42725   1.43210   1.43382
 Alpha virt. eigenvalues --    1.43853   1.44465   1.45350   1.46390   1.47656
 Alpha virt. eigenvalues --    1.48172   1.49178   1.50643   1.52743   1.54023
 Alpha virt. eigenvalues --    1.56374   1.57391   1.57640   1.58654   1.60648
 Alpha virt. eigenvalues --    1.62643   1.65019   1.66036   1.66368   1.66956
 Alpha virt. eigenvalues --    1.69992   1.72358   1.73784   1.74851   1.77270
 Alpha virt. eigenvalues --    1.77689   1.79312   1.79521   1.81156   1.82019
 Alpha virt. eigenvalues --    1.82973   1.85094   1.85611   1.87078   1.88207
 Alpha virt. eigenvalues --    1.89576   1.91080   1.92843   1.93170   1.93988
 Alpha virt. eigenvalues --    1.95976   1.96082   1.97045   1.97696   1.98070
 Alpha virt. eigenvalues --    1.99274   2.00240   2.01536   2.02666   2.04379
 Alpha virt. eigenvalues --    2.05543   2.06227   2.09026   2.09315   2.10560
 Alpha virt. eigenvalues --    2.10915   2.11392   2.13071   2.13551   2.17481
 Alpha virt. eigenvalues --    2.19084   2.20067   2.21509   2.22141   2.22694
 Alpha virt. eigenvalues --    2.25519   2.25731   2.26556   2.28441   2.30392
 Alpha virt. eigenvalues --    2.32343   2.35832   2.36507   2.37874   2.39349
 Alpha virt. eigenvalues --    2.40827   2.42463   2.43158   2.44241   2.44685
 Alpha virt. eigenvalues --    2.46136   2.46546   2.46786   2.48756   2.49978
 Alpha virt. eigenvalues --    2.51406   2.51537   2.52413   2.54282   2.55613
 Alpha virt. eigenvalues --    2.57292   2.57822   2.58208   2.59145   2.60290
 Alpha virt. eigenvalues --    2.61904   2.62168   2.64845   2.68320   2.68707
 Alpha virt. eigenvalues --    2.69013   2.69436   2.70056   2.70971   2.72340
 Alpha virt. eigenvalues --    2.73667   2.74499   2.75439   2.76171   2.77004
 Alpha virt. eigenvalues --    2.78969   2.80082   2.80592   2.82549   2.84917
 Alpha virt. eigenvalues --    2.85506   2.86954   2.88892   2.92251   2.93121
 Alpha virt. eigenvalues --    2.97999   3.00349   3.01743   3.02627   3.03032
 Alpha virt. eigenvalues --    3.06497   3.07688   3.08683   3.12424   3.13741
 Alpha virt. eigenvalues --    3.14470   3.19908   3.23574   3.25556   3.28006
 Alpha virt. eigenvalues --    3.32515   3.36336   3.38815   3.40371   3.43400
 Alpha virt. eigenvalues --    3.46664   3.47518   3.50684   3.51574   3.52842
 Alpha virt. eigenvalues --    3.58543   3.64447   3.66123   3.76141   4.27365
 Alpha virt. eigenvalues --    4.29401   4.30334   4.33737   4.35225   4.37161
 Alpha virt. eigenvalues --    4.40652   4.42660   4.45706   4.48103   4.50679
 Alpha virt. eigenvalues --    4.52874   4.57663   4.59353   4.67950   4.70855
 Alpha virt. eigenvalues --    4.76027   4.80608   4.88279   4.99002
          Condensed to atoms (all electrons):
              1          2          3          4          5          6
     1  O    8.420784   0.412042   0.094194  -0.033751  -0.000713   0.013003
     2  C    0.412042  13.285069  -1.191062  -1.003137  -0.110901  -0.265300
     3  C    0.094194  -1.191062  10.915919   0.264681  -0.402845   0.864050
     4  C   -0.033751  -1.003137   0.264681   8.907711   0.725567  -4.002702
     5  N   -0.000713  -0.110901  -0.402845   0.725567   7.558288  -1.482416
     6  C    0.013003  -0.265300   0.864050  -4.002702  -1.482416  17.886783
     7  C    0.000361   0.033943  -0.113726   0.364353   0.100480  -2.290098
     8  O    0.000045  -0.010087  -0.020058   0.017354   0.044302  -0.253796
     9  C   -0.000109   0.038570   0.025285   0.308635   0.178192  -0.740722
    10  C   -0.000029  -0.006221  -0.007062  -0.126818  -0.029396   0.234655
    11  O    0.000000   0.000059   0.001004  -0.021355  -0.001981   0.063368
    12  O    0.000000  -0.000154  -0.000599   0.002738  -0.000925  -0.011158
    13  C   -0.025088  -0.084436  -0.329373   0.043500   0.566020  -3.307288
    14  C    0.003683  -0.051885   0.065664  -0.258149  -0.006802   0.418311
    15  O    0.018262  -0.184006  -0.032056   0.262179  -0.141369  -0.183741
    16  C    0.108168  -0.155768   0.217208  -0.637116   0.230959  -0.289920
    17  C   -0.008206  -2.382582  -2.291509   0.284496   0.094751  -0.318834
    18  Cl  -0.000332  -0.017128  -0.026488   0.006353  -0.000699  -0.000426
    19  C    0.042672  -0.243506  -0.421100  -0.073948  -0.015359  -0.144136
    20  C   -0.679016  -1.427363  -1.658668   0.088437   0.011546   0.022357
    21  H    0.203967   0.069182  -0.163368   0.010377   0.001537  -0.003867
    22  H   -0.000003  -0.002723  -0.032982   0.101186   0.028132   0.052161
    23  H   -0.000001  -0.003442  -0.008861  -0.045554  -0.020712   0.090482
    24  H   -0.000013   0.004668  -0.021776   0.079345   0.035930  -0.181109
    25  H    0.000000  -0.000361  -0.000187  -0.008090  -0.004519  -0.005937
    26  H    0.000000   0.000005   0.000225   0.001086   0.000119   0.037887
    27  H    0.000000  -0.000004   0.000067  -0.000419   0.000122  -0.011530
    28  H    0.000053   0.008996  -0.000678   0.025761   0.007835  -0.058503
    29  H    0.000065  -0.000475  -0.004128   0.003145   0.017449  -0.057775
    30  H    0.000026  -0.008129   0.009803  -0.012477  -0.003756   0.079710
    31  H    0.000002   0.003712  -0.000656   0.006715  -0.014522   0.037406
    32  H   -0.000471   0.028306   0.025966   0.033427  -0.001054  -0.021496
    33  H   -0.000399  -0.000724   0.009611   0.001109   0.000050   0.000118
    34  H   -0.003445   0.012827   0.003523  -0.003625   0.000014  -0.000066
              7          8          9         10         11         12
     1  O    0.000361   0.000045  -0.000109  -0.000029   0.000000   0.000000
     2  C    0.033943  -0.010087   0.038570  -0.006221   0.000059  -0.000154
     3  C   -0.113726  -0.020058   0.025285  -0.007062   0.001004  -0.000599
     4  C    0.364353   0.017354   0.308635  -0.126818  -0.021355   0.002738
     5  N    0.100480   0.044302   0.178192  -0.029396  -0.001981  -0.000925
     6  C   -2.290098  -0.253796  -0.740722   0.234655   0.063368  -0.011158
     7  C    7.787363   0.371143  -0.570048  -0.161764  -0.043497   0.036730
     8  O    0.371143   8.225925  -0.179590   0.036933  -0.000426  -0.001440
     9  C   -0.570048  -0.179590   7.292897  -0.355125  -0.237470  -0.208774
    10  C   -0.161764   0.036933  -0.355125   5.149069   0.372044   0.601417
    11  O   -0.043497  -0.000426  -0.237470   0.372044   8.246846  -0.148667
    12  O    0.036730  -0.001440  -0.208774   0.601417  -0.148667   8.190522
    13  C    0.434821   0.032201   0.047316   0.037609  -0.020255  -0.002636
    14  C   -0.273559   0.043165  -0.082315   0.034296  -0.000264  -0.001034
    15  O    0.069177  -0.008245   0.020919  -0.018913   0.000097   0.000022
    16  C   -0.085711   0.015407  -0.032757   0.010437  -0.000204   0.000430
    17  C   -0.001235   0.004922  -0.005965   0.001275  -0.000039   0.000049
    18  Cl   0.000308  -0.000007   0.000027  -0.000001   0.000000   0.000000
    19  C    0.000801   0.000586   0.001191   0.000037  -0.000005  -0.000001
    20  C    0.010889  -0.001040   0.000887  -0.000171  -0.000003  -0.000003
    21  H    0.001677   0.000000  -0.000026   0.000008   0.000000   0.000000
    22  H    0.000157   0.009270  -0.013734  -0.000030   0.000978   0.000092
    23  H    0.388755  -0.057892  -0.150453   0.034354   0.000668   0.003388
    24  H    0.036063   0.256967   0.037545  -0.006044  -0.000041  -0.000024
    25  H    0.049877  -0.001162   0.288115  -0.010432  -0.001664   0.005943
    26  H   -0.054472   0.000299   0.391982  -0.025232   0.006359  -0.006613
    27  H    0.000716   0.000070   0.038914  -0.015897   0.249775   0.002594
    28  H   -0.001510  -0.000623   0.022408  -0.007914   0.000555  -0.000084
    29  H   -0.018087  -0.004577   0.012853  -0.000948   0.000059  -0.000001
    30  H   -0.010972   0.000455   0.003239   0.000002   0.000119   0.000002
    31  H    0.033586  -0.004197  -0.023585  -0.003124  -0.000381  -0.000020
    32  H    0.001587  -0.000013   0.000273  -0.000038   0.000000   0.000000
    33  H   -0.000002   0.000000   0.000000   0.000000   0.000000   0.000000
    34  H    0.000001   0.000000   0.000000   0.000000   0.000000   0.000000
             13         14         15         16         17         18
     1  O   -0.025088   0.003683   0.018262   0.108168  -0.008206  -0.000332
     2  C   -0.084436  -0.051885  -0.184006  -0.155768  -2.382582  -0.017128
     3  C   -0.329373   0.065664  -0.032056   0.217208  -2.291509  -0.026488
     4  C    0.043500  -0.258149   0.262179  -0.637116   0.284496   0.006353
     5  N    0.566020  -0.006802  -0.141369   0.230959   0.094751  -0.000699
     6  C   -3.307288   0.418311  -0.183741  -0.289920  -0.318834  -0.000426
     7  C    0.434821  -0.273559   0.069177  -0.085711  -0.001235   0.000308
     8  O    0.032201   0.043165  -0.008245   0.015407   0.004922  -0.000007
     9  C    0.047316  -0.082315   0.020919  -0.032757  -0.005965   0.000027
    10  C    0.037609   0.034296  -0.018913   0.010437   0.001275  -0.000001
    11  O   -0.020255  -0.000264   0.000097  -0.000204  -0.000039   0.000000
    12  O   -0.002636  -0.001034   0.000022   0.000430   0.000049   0.000000
    13  C    8.496643  -0.306616  -0.129236   0.243946   0.134654   0.001167
    14  C   -0.306616   5.619645  -0.130017   0.076965   0.015952   0.000122
    15  O   -0.129236  -0.130017   8.747786   0.052341   0.004872  -0.000223
    16  C    0.243946   0.076965   0.052341   9.504225  -0.425442  -0.147652
    17  C    0.134654   0.015952   0.004872  -0.425442   9.828007  -0.042867
    18  Cl   0.001167   0.000122  -0.000223  -0.147652  -0.042867  17.016888
    19  C    0.035503   0.002208  -0.008482  -0.735898   0.621938  -0.089086
    20  C   -0.066421  -0.004035   0.041028  -1.772412   0.351676   0.074804
    21  H    0.013103  -0.007221   0.029675  -0.032712  -0.001388  -0.000003
    22  H    0.097420   0.006636  -0.001260   0.025732   0.005000   0.000009
    23  H    0.021059  -0.000002  -0.002876   0.009566   0.001742   0.000004
    24  H    0.006481  -0.003465   0.001713   0.006617   0.004924   0.000009
    25  H    0.035359  -0.022946  -0.000600   0.000133   0.000017   0.000000
    26  H   -0.013161   0.005046   0.000097   0.000008  -0.000006   0.000000
    27  H    0.003434  -0.000100   0.000007  -0.000016  -0.000001   0.000000
    28  H    0.378250  -0.038320  -0.033530  -0.001996  -0.000509   0.000000
    29  H   -0.039169   0.427672   0.006279   0.011099   0.001149   0.000006
    30  H   -0.134625   0.439268   0.000558   0.000992   0.000162   0.000000
    31  H   -0.064415   0.374838   0.012108  -0.004386  -0.000348   0.000000
    32  H    0.003976   0.000330   0.000046   0.336361  -0.099496   0.000245
    33  H   -0.000026  -0.000008   0.000003   0.031891   0.056920  -0.005514
    34  H    0.000172   0.000002   0.000167   0.006263  -0.000935   0.000861
             19         20         21         22         23         24
     1  O    0.042672  -0.679016   0.203967  -0.000003  -0.000001  -0.000013
     2  C   -0.243506  -1.427363   0.069182  -0.002723  -0.003442   0.004668
     3  C   -0.421100  -1.658668  -0.163368  -0.032982  -0.008861  -0.021776
     4  C   -0.073948   0.088437   0.010377   0.101186  -0.045554   0.079345
     5  N   -0.015359   0.011546   0.001537   0.028132  -0.020712   0.035930
     6  C   -0.144136   0.022357  -0.003867   0.052161   0.090482  -0.181109
     7  C    0.000801   0.010889   0.001677   0.000157   0.388755   0.036063
     8  O    0.000586  -0.001040   0.000000   0.009270  -0.057892   0.256967
     9  C    0.001191   0.000887  -0.000026  -0.013734  -0.150453   0.037545
    10  C    0.000037  -0.000171   0.000008  -0.000030   0.034354  -0.006044
    11  O   -0.000005  -0.000003   0.000000   0.000978   0.000668  -0.000041
    12  O   -0.000001  -0.000003   0.000000   0.000092   0.003388  -0.000024
    13  C    0.035503  -0.066421   0.013103   0.097420   0.021059   0.006481
    14  C    0.002208  -0.004035  -0.007221   0.006636  -0.000002  -0.003465
    15  O   -0.008482   0.041028   0.029675  -0.001260  -0.002876   0.001713
    16  C   -0.735898  -1.772412  -0.032712   0.025732   0.009566   0.006617
    17  C    0.621938   0.351676  -0.001388   0.005000   0.001742   0.004924
    18  Cl  -0.089086   0.074804  -0.000003   0.000009   0.000004   0.000009
    19  C    7.093263   0.143655  -0.003377   0.000341   0.000031   0.000537
    20  C    0.143655  10.075346   0.129771  -0.000050  -0.000113   0.000838
    21  H   -0.003377   0.129771   0.295904  -0.000005   0.000000   0.000000
    22  H    0.000341  -0.000050  -0.000005   0.533353  -0.004135   0.000028
    23  H    0.000031  -0.000113   0.000000  -0.004135   0.576550  -0.005288
    24  H    0.000537   0.000838   0.000000   0.000028  -0.005288   0.325714
    25  H   -0.000002  -0.000010   0.000000   0.000131   0.004511  -0.000082
    26  H    0.000000   0.000000   0.000000  -0.000096  -0.006119  -0.000021
    27  H    0.000000  -0.000001   0.000000   0.000074   0.000007   0.000000
    28  H    0.000142   0.000475  -0.000044  -0.006998  -0.000137   0.000011
    29  H    0.000382   0.000117   0.000017  -0.000049  -0.000080  -0.000218
    30  H   -0.000158  -0.001012  -0.000066  -0.000103   0.000003   0.000005
    31  H   -0.000001   0.000227  -0.000001  -0.000055  -0.000031   0.000177
    32  H    0.013105   0.002349  -0.000005   0.000003  -0.000004  -0.000010
    33  H    0.247438  -0.010898   0.000002   0.000000   0.000000   0.000000
    34  H    0.003481   0.310539   0.000043   0.000000   0.000000   0.000000
             25         26         27         28         29         30
     1  O    0.000000   0.000000   0.000000   0.000053   0.000065   0.000026
     2  C   -0.000361   0.000005  -0.000004   0.008996  -0.000475  -0.008129
     3  C   -0.000187   0.000225   0.000067  -0.000678  -0.004128   0.009803
     4  C   -0.008090   0.001086  -0.000419   0.025761   0.003145  -0.012477
     5  N   -0.004519   0.000119   0.000122   0.007835   0.017449  -0.003756
     6  C   -0.005937   0.037887  -0.011530  -0.058503  -0.057775   0.079710
     7  C    0.049877  -0.054472   0.000716  -0.001510  -0.018087  -0.010972
     8  O   -0.001162   0.000299   0.000070  -0.000623  -0.004577   0.000455
     9  C    0.288115   0.391982   0.038914   0.022408   0.012853   0.003239
    10  C   -0.010432  -0.025232  -0.015897  -0.007914  -0.000948   0.000002
    11  O   -0.001664   0.006359   0.249775   0.000555   0.000059   0.000119
    12  O    0.005943  -0.006613   0.002594  -0.000084  -0.000001   0.000002
    13  C    0.035359  -0.013161   0.003434   0.378250  -0.039169  -0.134625
    14  C   -0.022946   0.005046  -0.000100  -0.038320   0.427672   0.439268
    15  O   -0.000600   0.000097   0.000007  -0.033530   0.006279   0.000558
    16  C    0.000133   0.000008  -0.000016  -0.001996   0.011099   0.000992
    17  C    0.000017  -0.000006  -0.000001  -0.000509   0.001149   0.000162
    18  Cl   0.000000   0.000000   0.000000   0.000000   0.000006   0.000000
    19  C   -0.000002   0.000000   0.000000   0.000142   0.000382  -0.000158
    20  C   -0.000010   0.000000  -0.000001   0.000475   0.000117  -0.001012
    21  H    0.000000   0.000000   0.000000  -0.000044   0.000017  -0.000066
    22  H    0.000131  -0.000096   0.000074  -0.006998  -0.000049  -0.000103
    23  H    0.004511  -0.006119   0.000007  -0.000137  -0.000080   0.000003
    24  H   -0.000082  -0.000021   0.000000   0.000011  -0.000218   0.000005
    25  H    0.511683  -0.029443  -0.000040  -0.000859  -0.000183   0.000032
    26  H   -0.029443   0.480457  -0.000200   0.000011   0.000001  -0.000001
    27  H   -0.000040  -0.000200   0.296742   0.000056   0.000000   0.000000
    28  H   -0.000859   0.000011   0.000056   0.504968   0.003823  -0.003437
    29  H   -0.000183   0.000001   0.000000   0.003823   0.506427  -0.028541
    30  H    0.000032  -0.000001   0.000000  -0.003437  -0.028541   0.517552
    31  H    0.001335   0.000085   0.000002  -0.001119  -0.022893  -0.024484
    32  H    0.000000   0.000000   0.000000   0.000000   0.000001   0.000000
    33  H    0.000000   0.000000   0.000000   0.000000   0.000000   0.000000
    34  H    0.000000   0.000000   0.000000   0.000000   0.000000   0.000000
             31         32         33         34
     1  O    0.000002  -0.000471  -0.000399  -0.003445
     2  C    0.003712   0.028306  -0.000724   0.012827
     3  C   -0.000656   0.025966   0.009611   0.003523
     4  C    0.006715   0.033427   0.001109  -0.003625
     5  N   -0.014522  -0.001054   0.000050   0.000014
     6  C    0.037406  -0.021496   0.000118  -0.000066
     7  C    0.033586   0.001587  -0.000002   0.000001
     8  O   -0.004197  -0.000013   0.000000   0.000000
     9  C   -0.023585   0.000273   0.000000   0.000000
    10  C   -0.003124  -0.000038   0.000000   0.000000
    11  O   -0.000381   0.000000   0.000000   0.000000
    12  O   -0.000020   0.000000   0.000000   0.000000
    13  C   -0.064415   0.003976  -0.000026   0.000172
    14  C    0.374838   0.000330  -0.000008   0.000002
    15  O    0.012108   0.000046   0.000003   0.000167
    16  C   -0.004386   0.336361   0.031891   0.006263
    17  C   -0.000348  -0.099496   0.056920  -0.000935
    18  Cl   0.000000   0.000245  -0.005514   0.000861
    19  C   -0.000001   0.013105   0.247438   0.003481
    20  C    0.000227   0.002349  -0.010898   0.310539
    21  H   -0.000001  -0.000005   0.000002   0.000043
    22  H   -0.000055   0.000003   0.000000   0.000000
    23  H   -0.000031  -0.000004   0.000000   0.000000
    24  H    0.000177  -0.000010   0.000000   0.000000
    25  H    0.001335   0.000000   0.000000   0.000000
    26  H    0.000085   0.000000   0.000000   0.000000
    27  H    0.000002   0.000000   0.000000   0.000000
    28  H   -0.001119   0.000000   0.000000   0.000000
    29  H   -0.022893   0.000001   0.000000   0.000000
    30  H   -0.024484   0.000000   0.000000   0.000000
    31  H    0.524902   0.000000   0.000000   0.000000
    32  H    0.000000   0.461375  -0.000127   0.000007
    33  H    0.000000  -0.000127   0.466580  -0.003602
    34  H    0.000000   0.000007  -0.003602   0.470739
 Mulliken atomic charges:
              1
     1  O   -0.565751
     2  C   -0.747985
     3  C    0.229982
     4  C    0.688988
     5  N   -0.363322
     6  C   -0.169468
     7  C   -0.098106
     8  O   -0.515889
     9  C   -0.108575
    10  C    0.263025
    11  O   -0.465681
    12  O   -0.461796
    13  C   -0.109889
    14  C   -0.347066
    15  O   -0.392780
    16  C   -0.566756
    17  C    0.166852
    18  Cl   0.229623
    19  C   -0.472251
    20  C    0.356274
    21  H    0.456820
    22  H    0.201524
    23  H    0.174581
    24  H    0.420519
    25  H    0.189380
    26  H    0.211699
    27  H    0.435627
    28  H    0.202916
    29  H    0.186581
    30  H    0.175831
    31  H    0.169126
    32  H    0.215355
    33  H    0.207580
    34  H    0.203033
 Sum of Mulliken atomic charges =   0.00000
 Mulliken charges with hydrogens summed into heavy atoms:
              1
     1  O   -0.108931
     2  C   -0.747985
     3  C    0.229982
     4  C    0.688988
     5  N   -0.363322
     6  C    0.032056
     7  C    0.076474
     8  O   -0.095371
     9  C    0.292505
    10  C    0.263025
    11  O   -0.030054
    12  O   -0.461796
    13  C    0.093027
    14  C    0.184472
    15  O   -0.392780
    16  C   -0.351400
    17  C    0.166852
    18  Cl   0.229623
    19  C   -0.264671
    20  C    0.559307
 Sum of Mulliken charges with hydrogens summed into heavy atoms =   0.00000
 Electronic spatial extent (au):  <R**2>=           8272.9354
 Charge=              0.0000 electrons
 Dipole moment (field-independent basis, Debye):
    X=             -1.2333    Y=              4.5318    Z=             -0.9352  Tot=              4.7888
 Quadrupole moment (field-independent basis, Debye-Ang):
   XX=           -119.4149   YY=           -133.6579   ZZ=           -126.7331
   XY=            -12.3295   XZ=              3.5182   YZ=             -2.6669
 Traceless Quadrupole moment (field-independent basis, Debye-Ang):
   XX=              7.1871   YY=             -7.0559   ZZ=             -0.1312
   XY=            -12.3295   XZ=              3.5182   YZ=             -2.6669
 Octapole moment (field-independent basis, Debye-Ang**2):
  XXX=             11.1359  YYY=              6.3702  ZZZ=            -25.4804  XYY=             -2.0801
  XXY=            113.0782  XXZ=            -10.7013  XZZ=            -28.3062  YZZ=             16.5349
  YYZ=              8.6760  XYZ=             20.5051
 Hexadecapole moment (field-independent basis, Debye-Ang**3):
 XXXX=          -8089.5682 YYYY=          -1790.0288 ZZZZ=           -601.9024 XXXY=           -206.2847
 XXXZ=             13.6305 YYYX=           -117.2173 YYYZ=            -15.0323 ZZZX=            136.3214
 ZZZY=            -10.2327 XXYY=          -1891.4406 XXZZ=          -1478.6565 YYZZ=           -415.2906
 XXYZ=           -156.0036 YYXZ=            -25.0425 ZZXY=            -80.3290
 N-N= 1.671971637082D+03 E-N=-6.615829913673D+03  KE= 1.385309501575D+03
 D1PCM: PCM CHGder 1st derivatives, ID1Alg=3 FixD1E=F DoIter=F DoCFld=F I1PDM=0.
 Calling FoFJK, ICntrl=      2127 FMM=F ISym2X=0 I1Cent= 0 IOpClX= 0 NMat=1 NMatS=1 NMatT=0.
 ***** Axes restored to original set *****
 -------------------------------------------------------------------
 Center     Atomic                   Forces (Hartrees/Bohr)
 Number     Number              X              Y              Z
 -------------------------------------------------------------------
      1        8          -0.033085320   -0.006271464    0.007751761
      2        6           0.007414139    0.000299504   -0.002599750
      3        6          -0.002937838    0.009411382    0.006277281
      4        6           0.001954460   -0.002710267   -0.008317349
      5        7          -0.012777279   -0.018972639   -0.005258078
      6        6           0.025583936   -0.001305335   -0.008050571
      7        6          -0.009054005   -0.001399372    0.006584258
      8        8           0.028338133    0.008952765   -0.013494393
      9        6          -0.000496899    0.003717093    0.003372468
     10        6          -0.000457418   -0.010209412    0.000251963
     11        8          -0.027492472   -0.001175477   -0.035109686
     12        8          -0.006404461    0.028389224    0.003943705
     13        6           0.008353225    0.003567294   -0.028537308
     14        6           0.000822890   -0.004678891    0.001756911
     15        8          -0.030319756    0.014784651    0.032626785
     16        6          -0.010855107    0.008138416    0.008261372
     17        6           0.021857446    0.019087602    0.002607970
     18       17          -0.004502518   -0.006454470   -0.001968353
     19        6           0.017517047    0.005302812   -0.002861294
     20        6           0.000573412   -0.016758969   -0.008859296
     21        1           0.020769907   -0.003570493   -0.009036071
     22        1           0.003636232   -0.004255384    0.003866108
     23        1           0.003341661   -0.006045852    0.007448369
     24        1          -0.021888078   -0.001529146    0.003407713
     25        1          -0.001250506    0.004958932    0.003284605
     26        1          -0.002142051   -0.005037680   -0.000060480
     27        1           0.022841466   -0.014589351    0.023418853
     28        1          -0.002240298    0.000819482    0.004383520
     29        1          -0.001693467   -0.003098719   -0.000000665
     30        1           0.000421884    0.000764693    0.005116018
     31        1           0.003141432   -0.002523218   -0.001341924
     32        1           0.004384339   -0.001577688   -0.002081220
     33        1          -0.003992778    0.000372139    0.001535664
     34        1           0.000638642    0.003597833    0.001681114
 -------------------------------------------------------------------
 Cartesian Forces:  Max     0.035109686 RMS     0.011954043

 GradGradGradGradGradGradGradGradGradGradGradGradGradGradGradGradGradGrad
 Berny optimization.
 Internal  Forces:  Max     0.035802963 RMS     0.007260368
 Search for a local minimum.
 Step number   1 out of a maximum of  192
 All quantities printed in internal units (Hartrees-Bohrs-Radians)
 Mixed Optimization -- RFO/linear search
 Second derivative matrix not updated -- first step.
 ITU=  0
     Eigenvalues ---    0.00230   0.00230   0.00230   0.00379   0.00719
     Eigenvalues ---    0.00848   0.00909   0.01497   0.01554   0.01693
     Eigenvalues ---    0.01843   0.01917   0.01943   0.01963   0.01980
     Eigenvalues ---    0.01998   0.02001   0.02005   0.02119   0.02234
     Eigenvalues ---    0.02386   0.03519   0.03536   0.03618   0.03852
     Eigenvalues ---    0.04247   0.04597   0.05215   0.05233   0.05433
     Eigenvalues ---    0.05704   0.05760   0.07910   0.08316   0.08574
     Eigenvalues ---    0.09436   0.12871   0.13568   0.16000   0.16000
     Eigenvalues ---    0.16000   0.16000   0.16000   0.16000   0.16000
     Eigenvalues ---    0.16000   0.16491   0.16779   0.18043   0.19385
     Eigenvalues ---    0.20360   0.21906   0.22438   0.23510   0.23635
     Eigenvalues ---    0.24601   0.24998   0.24999   0.25000   0.25000
     Eigenvalues ---    0.25000   0.26978   0.27527   0.28243   0.28362
     Eigenvalues ---    0.29492   0.33048   0.33287   0.34478   0.34567
     Eigenvalues ---    0.34734   0.34777   0.34797   0.34827   0.35130
     Eigenvalues ---    0.35137   0.35933   0.35946   0.35978   0.37647
     Eigenvalues ---    0.38689   0.40296   0.41481   0.42953   0.43268
     Eigenvalues ---    0.43860   0.44304   0.44547   0.48079   0.51342
     Eigenvalues ---    0.53155   0.56933   0.57325   0.58640   0.71687
     Eigenvalues ---    0.92844
 RFO step:  Lambda=-2.71580935D-02 EMin= 2.30000000D-03
 Linear search not attempted -- first point.
 Iteration  1 RMS(Cart)=  0.09757512 RMS(Int)=  0.00253869
 Iteration  2 RMS(Cart)=  0.00436785 RMS(Int)=  0.00053319
 Iteration  3 RMS(Cart)=  0.00000808 RMS(Int)=  0.00053316
 Iteration  4 RMS(Cart)=  0.00000001 RMS(Int)=  0.00053316
 Variable       Old X    -DE/DX   Delta X   Delta X   Delta X     New X
                                 (Linear)    (Quad)   (Total)
    R1        2.58461  -0.01396   0.00000  -0.02621  -0.02624   2.55837
    R2        1.79556   0.01985   0.00000   0.03396   0.03402   1.82958
    R3        2.68941  -0.00916   0.00000  -0.02250  -0.02262   2.66679
    R4        2.66316  -0.01302   0.00000  -0.02782  -0.02783   2.63532
    R5        2.81415  -0.01341   0.00000  -0.03871  -0.03878   2.77537
    R6        2.67423  -0.01605   0.00000  -0.03517  -0.03519   2.63904
    R7        2.39492   0.01256   0.00000   0.01715   0.01743   2.41235
    R8        2.58680  -0.00597   0.00000  -0.01061  -0.01038   2.57642
    R9        2.72112   0.01131   0.00000   0.02840   0.02841   2.74953
   R10        2.93185  -0.00963   0.00000  -0.03186  -0.03186   2.90000
   R11        2.92083   0.00426   0.00000   0.01138   0.01104   2.93187
   R12        2.06530   0.00664   0.00000   0.01786   0.01786   2.08317
[...]
 .00000627,0.00000099,0.00002606,0.00002442,0.00000862,-0.00002459,-0.0
 0001229,-0.00000145,-0.00001082,-0.00000427,-0.00008080,-0.00002488,0.
 00017083,-0.00019585,-0.00000769,0.00000576,-0.00011491,-0.00035914,-0
 .00099138,-0.00050153,-0.00002153,0.00001024,0.00006610,-0.00000590,-0
 .00003555,0.00001110,-0.00000229,-0.00000866,-0.00001754,-0.00040302,-
 0.00264178,0.00381933,0.04314693,0.05768059,-0.00000399,0.00001009,0.0
 0006655,-0.00000316,-0.00000264,-0.00006527,0.00002142,-0.00000549,-0.
 00005877,0.00065077,0.00076084,-0.00064148,0.00033874,0.00015141,0.000
 32741,-0.00010699,-0.00049561,0.00081986,0.00026094,0.00024296,0.00001
 725,0.00046566,-0.00061268,-0.00057253,0.00011001,-0.00007533,-0.00013
 743,-0.00007278,-0.00011367,-0.00015489,-0.00005308,0.00009008,0.00008
 356,0.00003522,0.00002370,0.00005010,-0.02188229,-0.00427900,-0.014833
 59,-0.11948761,-0.02247794,-0.11695617,-0.00024703,-0.00152776,0.00236
 075,0.00002370,0.00003403,0.00001909,-0.00001655,0.00004631,0.00002803
 ,-0.00002277,-0.00002641,-0.00000439,-0.00002850,-0.00003229,-0.000011
 89,0.00001892,-0.00000263,0.00001807,0.00001943,-0.00005374,-0.0001706
 6,0.00007218,-0.00009325,0.00003508,-0.00003159,0.00003598,0.00004490,
 -0.00010122,-0.00018536,0.00011577,-0.00012498,0.00007459,0.00005611,0
 .00000394,-0.00007312,0.00003308,0.00000914,0.00000032,0.00001789,0.00
 040693,0.00369707,-0.00247434,0.13119531,0.02238474,0.12681128,0.00007
 383,0.00005353,-0.00004580,-0.00007504,-0.00010411,0.00000383,0.000047
 53,0.00003031,0.00006387,-0.00022106,-0.00057198,-0.00038538,0.0002402
 3,0.00034719,0.00020060,0.00039622,-0.00010308,-0.00073825,-0.00041387
 ,-0.00025174,-0.00038688,0.00093969,-0.00081825,-0.00027357,-0.0003275
 4,-0.00023161,0.00005336,0.00025475,-0.00003095,0.00025956,-0.00008038
 ,-0.00001074,-0.00012126,-0.00012365,0.00015357,-0.00012462,-0.0016906
 4,0.00414306,0.00325226,-0.04886577,0.00506601,0.00095868,0.00056324,-
 0.00040229,-0.00064903,0.00000370,-0.00000772,-0.00002036,-0.00000204,
 -0.00001509,-0.00000494,0.00001551,0.00001560,0.00000347,0.00001105,0.
 00000247,0.00000050,0.00001254,0.00001676,-0.00001235,-0.00011345,0.00
 005147,0.00021759,0.00002416,0.00022732,0.00002506,0.00007077,-0.00002
 000,0.00007421,0.00002898,0.00041756,0.00015464,0.00024985,0.00021735,
 -0.00005675,0.00000097,0.00013039,-0.00002527,0.00001584,-0.00000116,0
 .00002540,0.00001742,0.00019826,0.00041877,0.00230829,-0.02533885,-0.0
 0947477,0.04641128,0.00003507,0.00012577,0.00004322,-0.00011708,-0.000
 17773,-0.00002844,-0.00002957,0.00007839,0.00004975,-0.00032001,-0.000
 77853,-0.00098325,-0.00030490,0.00029272,0.00052449,0.00184420,0.00061
 083,0.00411859,-0.00027759,0.00040108,0.00033655,-0.00002913,-0.000241
 04,-0.00045924,0.00003607,0.00005373,-0.00001739,-0.00023983,0.0001530
 8,-0.00013219,0.00010547,-0.00000749,0.00009394,0.00009297,-0.00011906
 ,0.00006018,0.00021155,-0.02336665,-0.00931274,0.00452956,-0.27559443,
 -0.10237029,0.00068587,0.00264490,-0.00050877,-0.00000153,0.00001379,0
 .00001919,-0.00000585,0.00004944,0.00002026,-0.00001166,-0.00001193,-0
 .00000200,-0.00003039,-0.00003049,-0.00000034,0.00002850,0.00002650,-0
 .00000406,-0.00017472,-0.00009488,0.00022488,-0.00031811,-0.00125193,-
 0.00023661,0.00003318,-0.00005398,-0.00011271,0.00016939,0.00010126,0.
 00008948,-0.00003763,-0.00004937,0.00004179,0.00003344,-0.00001118,-0.
 00000556,-0.00002599,0.00000500,-0.00003431,0.00001894,0.00097226,0.00
 005410,0.00036505,-0.00316385,-0.00084135,-0.00631149,0.29896245,-0.00
 003053,-0.00005224,-0.00001853,0.00005690,0.00006828,-0.00000641,-0.00
 000905,-0.00007170,-0.00003046,0.00019690,0.00064925,0.00051785,0.0005
 3858,0.00022041,0.00012002,-0.00064878,0.00155110,-0.00431907,-0.00030
 568,0.00044362,-0.00107766,0.00002953,-0.00200012,-0.00030598,0.000275
 75,0.00019417,0.00010197,-0.00006767,-0.00000652,-0.00027179,0.0000345
 7,-0.00000063,0.00010258,0.00006274,-0.00010554,0.00011458,0.00016134,
 0.02742886,0.00873548,0.00200270,-0.10460364,-0.09263789,-0.00178819,-
 0.00127894,0.00174272,0.00000089,0.00000966,-0.00000216,0.00000038,-0.
 00002211,-0.00000202,0.00000035,0.00000275,0.00000012,0.00000878,0.000
 01085,-0.00000294,-0.00000756,-0.00001194,0.00000588,0.00009322,-0.000
 05588,-0.00003413,0.00019818,0.00113449,0.00017150,0.00003017,-0.00005
 647,0.00022597,0.00020360,0.00015994,0.00007936,-0.00021200,-0.0001402
 4,-0.00001310,-0.00005212,-0.00008591,0.00002410,-0.00000278,0.0000068
 0,0.00000037,-0.00001574,-0.00075867,0.00117590,0.00244575,-0.01325209
 ,-0.00626778,-0.00148803,0.10904965,0.09951111,-0.00001225,-0.00000577
 ,0.00002924,0.00002063,0.00001532,-0.00002546,0.00004076,0.00003360,0.
 00002370,0.00059305,0.00034675,-0.00044334,-0.00010375,0.00001130,0.00
 015744,0.00008135,-0.00016276,0.00034617,0.00024464,-0.00086899,0.0005
 9019,0.00033062,0.00139796,0.00017330,-0.00077995,0.00071426,0.0001209
 1,0.00011282,0.00004777,0.00032761,-0.00000318,-0.00009263,-0.00008350
 ,-0.00007704,0.00009593,-0.00013430,0.00223022,-0.00128838,-0.00329686
 ,-0.21011644,0.01111637,0.13841810,0.00185093,0.00042504,-0.00090824,0
 .00001471,0.00001116,0.00000338,-0.00000262,0.00002024,0.00000618,-0.0
 0000689,-0.00000920,-0.00000262,-0.00000854,-0.00000776,0.00000095,-0.
 00000436,-0.00000280,-0.00000181,0.00003092,-0.00002728,-0.00011361,-0
 .00000919,-0.00015138,-0.00008509,-0.00006478,0.00007271,-0.00013181,-
 0.00018383,0.00010370,0.00001874,-0.00066459,0.00202731,0.00019227,0.0
 0000854,0.00011991,0.00000490,0.00000216,-0.00001405,-0.00000483,-0.00
 011346,-0.00054696,0.00047961,-0.01887273,0.00154464,0.01802384,0.0002
 2909,0.00004072,-0.00170543,0.22523404,-0.00006366,0.00008726,0.000026
 58,-0.00000011,-0.00006956,-0.00002722,-0.00018472,-0.00013495,-0.0002
 1175,0.00107594,0.00187883,0.00124506,0.00034006,-0.00026799,-0.000531
 04,-0.00038905,0.00048612,-0.00045038,-0.00013375,-0.00094051,0.000424
 66,0.00020981,0.00016440,-0.00025059,0.00008658,-0.00100125,-0.0002803
 3,0.00053075,-0.00023056,0.00062625,-0.00022796,0.00004476,-0.00033788
 ,-0.00027496,0.00039836,-0.00028540,-0.01799126,0.00257531,0.00935174,
 0.01303812,-0.04679999,-0.00799638,-0.00288678,-0.00358619,0.00602352,
 -0.00000603,0.00008016,0.00001009,-0.00003267,0.00003616,0.00004842,-0
 .00002532,-0.00002847,-0.00000255,-0.00002496,-0.00004520,-0.00001588,
 0.00002770,0.00001231,0.00000683,0.00005832,-0.00023072,0.00004556,0.0
 0023513,0.00009781,-0.00001678,0.00012404,0.00010097,-0.00006885,-0.00
 017203,0.00008255,-0.00002260,0.00197284,-0.00148351,-0.00030700,0.000
 02512,0.00017193,-0.00006020,0.00003946,-0.00000754,0.00006103,0.00042
 207,0.00062511,-0.00043789,-0.00395306,-0.00099044,0.00334032,0.023149
 33,0.00044339,-0.01841722,-0.01496744,0.04852583,0.00009612,-0.0000720
 6,-0.00003397,-0.00003044,0.00004357,0.00001375,0.00026891,0.00021294,
 0.00010988,-0.00155907,-0.00229906,-0.00174525,-0.00028087,0.00060505,
 0.00102363,0.00016922,-0.00005312,0.00018204,0.00040385,0.00046895,0.0
 0010087,-0.00048784,-0.00018325,-0.00025678,0.00059663,-0.00006901,-0.
 00022937,-0.00023111,0.00017446,-0.00028885,0.00007486,-0.00006111,0.0
 0013943,0.00014588,-0.00023789,0.00015875,0.01721354,-0.00583949,-0.01
 052258,0.13852942,-0.00623954,-0.16304404,0.00324697,0.00519882,-0.004
 57214,-0.00000515,-0.00011353,-0.00000388,0.00004394,-0.00005889,-0.00
 005979,0.00003619,0.00004229,0.00000270,0.00003262,0.00005907,0.000021
 34,-0.00002202,-0.00000721,-0.00000801,-0.00021413,0.00024703,0.000141
 18,-0.00019043,-0.00002245,-0.00004238,-0.00009614,0.00002689,0.000029
 79,0.00002954,-0.00005583,-0.00011038,-0.00018638,-0.00050501,0.000633
 69,-0.00004082,-0.00027478,0.00004378,-0.00001475,-0.00000624,-0.00004
 881,-0.00066314,-0.00038495,0.00051135,-0.01297501,0.00057996,0.011446
 44,0.00809566,0.00031777,-0.00763355,-0.15198267,0.00851529,0.17403546
 ,0.00022396,-0.00133372,-0.00058045,-0.00206346,-0.00323600,0.00123396
 ,0.01084120,-0.01482276,-0.00888489,-0.00055578,-0.00061347,-0.0016175
 3,-0.00111919,-0.00077357,0.00040371,-0.00030554,0.00039836,-0.0000663
 6,0.00003861,0.00003235,0.00012743,-0.00002149,0.00000008,-0.00007734,
 0.00001213,-0.00001524,-0.00003820,-0.00005272,0.00004224,-0.00002933,
 0.00003067,-0.00000540,0.00001770,0.00002030,-0.00002887,0.00001291,0.
 00004427,-0.00003557,0.00011497,0.00001025,0.00001901,-0.00000003,0.00
 068909,0.00078093,0.00035574,-0.09147205,0.08201085,0.05402781,-0.0057
 5751,0.02191480,0.01342063,0.00087578,0.00142992,-0.00068364,-0.004510
 62,-0.00130742,0.00300374,-0.00071604,-0.00079883,-0.00046154,0.000379
 57,0.00005847,-0.00010962,0.00002489,-0.00002005,0.00000566,-0.0000061
 5,-0.00000065,-0.00000603,0.00003334,0.00000269,0.00004327,-0.00000564
 ,-0.00000081,0.00000622,0.00001852,-0.00000096,-0.00000455,-0.00000795
 ,0.00000048,-0.00000802,-0.00000320,0.00003321,0.00000176,0.00000334,-
 0.00000606,0.00000433,-0.00000277,0.00001016,-0.00000772,0.00000042,0.
 00000332,-0.00000998,0.09342394,0.00039880,-0.00092341,-0.00063533,-0.
 00438894,-0.00028866,-0.00129595,0.00841295,-0.01428870,-0.01115483,0.
 00097694,-0.00185762,0.00049006,0.00137155,0.00046973,-0.00049819,-0.0
 0031523,0.00045384,0.00028817,-0.00002847,0.00006675,0.00014065,-0.000
 00863,-0.00002195,-0.00009480,0.00001705,-0.00002583,-0.00003950,-0.00
 006263,0.00006767,-0.00003692,0.00003425,-0.00001214,0.00002028,0.0000
 2084,-0.00004534,0.00001978,0.00012300,0.00007083,0.00003326,0.0000320
 4,0.00001838,0.00001294,0.00040081,0.00049695,0.00013728,0.08192415,-0
 .24207311,-0.11816516,-0.00264322,0.00412184,0.00063121,-0.00013014,0.
 00026891,0.00151439,-0.00147868,0.00160497,-0.00148188,-0.00015500,0.0
 0015917,0.00060045,0.00031265,0.00004938,-0.00005714,0.00007089,0.0000
 0989,0.00000549,-0.00000140,-0.00000598,-0.00000794,0.00001878,0.00001
 935,0.00008564,-0.00000550,-0.00000072,0.00000579,0.00002200,0.0000007
 0,-0.00000433,-0.00000748,0.00000288,-0.00001064,0.00000786,0.00007646
 ,-0.00000047,-0.00000181,-0.00001129,0.00000705,-0.00000288,0.00001653
 ,-0.00000852,0.00000202,0.00000674,-0.00001091,-0.08498930,0.25134263,
 0.00015751,0.00001681,0.00005469,0.00091532,-0.00186207,0.00487616,0.0
 0103939,-0.00327944,0.00244745,-0.00017093,0.00088036,-0.00357445,0.00
 126138,0.00042919,0.00039348,-0.00016498,0.00026129,-0.00020793,0.0000
 2694,0.00000871,0.00004108,-0.00001474,-0.00000332,-0.00002079,-0.0000
 0344,0.00000024,-0.00000778,-0.00000170,-0.00000088,0.00000983,0.00000
 022,-0.00000170,-0.00000724,-0.00000013,0.00000132,-0.00000514,0.00022
 568,-0.00005698,0.00002175,-0.00002988,0.00000125,0.00002005,-0.000282
 98,-0.00015601,0.00003636,0.05406817,-0.11814267,-0.10923504,0.0025497
 3,-0.00758645,0.00026618,-0.00139195,0.00098195,-0.00210340,0.00285144
 ,-0.00141525,0.00439898,-0.00031265,0.00075009,-0.00062037,-0.00002266
 ,0.00002948,-0.00000850,-0.00003842,-0.00001814,-0.00000908,-0.0000003
 9,0.00000191,0.00000318,0.00001896,0.00001415,-0.00000210,-0.00000019,
 -0.00000018,0.00000058,0.00000323,-0.00000034,-0.00000101,-0.00000140,
 -0.00000094,0.00000259,0.00000441,0.00004700,0.00001007,0.00000022,-0.
 00000238,-0.00000201,-0.00000191,0.00000239,-0.00000531,0.00000410,-0.
 00000605,0.00000646,-0.06060464,0.12921662,0.10364299,-0.00100376,-0.0
 0004561,0.00025154,0.00127839,-0.00293775,0.00111671,0.00060796,-0.000
 11368,-0.00051910,-0.00024054,0.00007547,-0.00017295,0.00003290,-0.000
 01086,0.00003382,-0.00000998,-0.00001932,0.00000601,0.00000039,0.00000
 778,0.00000703,-0.00000063,-0.00000154,-0.00000558,0.00000086,-0.00000
 108,-0.00000203,-0.00000368,0.00000236,-0.00000038,0.00000237,-0.00000
 006,0.00000045,0.00000166,-0.00000160,0.00000028,0.00000924,-0.0000011
 4,-0.00000752,-0.00000038,-0.00000273,-0.00000047,-0.00001415,0.000038
 12,0.00002767,0.00134275,0.00100462,0.00181990,-0.00554656,-0.00261483
 ,0.00194300,0.00071480,-0.00006236,-0.00109879,-0.31431614,0.00376286,
 0.09543857,-0.01066699,0.00173701,0.00607360,0.00005039,-0.00014877,-0
 .00016738,0.00001316,0.00000586,-0.00000564,-0.00000001,0.00000038,0.0
 0000061,0.00000197,0.00000166,0.00000449,-0.00000004,0.00000012,0.0000
 0008,0.00000111,0.00000011,-0.00000009,-0.00000088,0.00000007,-0.00000
 033,-0.00000105,0.00000265,0.00000249,0.00000023,-0.00000176,0.0000002
 8,0.00000090,0.00000169,-0.00000073,0.00000012,0.00000036,0.00000038,-
 0.00014035,-0.00005034,-0.00000807,0.32755579,-0.00147875,0.00012181,0
 .00060405,-0.00296263,-0.00210516,-0.00376168,-0.00053152,-0.00109421,
 0.00003766,0.00017638,-0.00016794,0.00023254,0.00001409,0.00009360,-0.
 00006206,-0.00000791,0.00003195,0.00003630,-0.00000386,0.00000114,-0.0
 0000677,0.00000224,0.00000119,0.00000430,-0.00000017,0.00000054,0.0000
 0151,0.00000195,-0.00000165,0.00000002,-0.00000173,0.00000046,-0.00000
 003,-0.00000049,0.00000105,-0.00000020,0.00004029,0.00002071,-0.000018
 04,0.00000023,-0.00000036,-0.00000011,-0.00001370,0.00007212,0.0000380
 8,0.00096601,-0.00328867,-0.00420617,0.02278439,0.00288254,-0.00813287
 ,0.00114960,0.00078014,0.00099954,0.00225966,-0.05460338,-0.00781428,-
 0.02326526,0.00523567,0.00808352,0.00000923,-0.00035998,-0.00001515,-0
 .00000443,-0.00000249,0.00000289,-0.00000110,0.00000037,0.00000180,-0.
 00000242,-0.00000158,-0.00000039,0.00000058,-0.00000006,-0.00000041,-0
 .00000078,0.00000019,0.00000008,0.00000047,-0.00000002,0.00000016,-0.0
 0000185,0.00000056,0.00000067,0.00000003,0.00000011,-0.00000097,0.0000
 0120,0.00000087,-0.00000083,-0.00000074,-0.00000095,0.00000154,0.00112
 908,0.00029600,-0.00019013,-0.00143367,0.05197422,-0.00038973,0.000167
 76,0.00004368,0.00114714,-0.00381376,0.00632681,-0.00082090,-0.0000939
 9,-0.00058229,0.00002937,0.00020817,-0.00073780,0.00008407,0.00000236,
 0.00023800,-0.00001884,0.00005919,-0.00005361,0.00000484,-0.00001013,-
 0.00000037,-0.00000465,0.00000290,0.00000478,-0.00000182,0.00000176,0.
 00000092,0.00000480,-0.00000358,0.00000387,-0.00000289,0.00000019,-0.0
 0000296,-0.00000169,0.00000283,-0.00000208,0.00003081,0.00000132,0.000
 02457,-0.00000617,0.00000005,0.00000454,-0.00000920,0.00000487,0.00000
 271,0.00182886,-0.00424542,0.00279568,0.01334720,0.00059692,-0.0005848
 3,-0.00053194,0.00142390,-0.00145211,0.09480326,-0.00834101,-0.0750991
 0,-0.00528353,-0.00047028,0.00645167,-0.00011764,0.00001245,-0.0002326
 2,-0.00001907,-0.00000637,0.00000119,-0.00000059,0.00000102,0.00000039
 ,0.00000019,-0.00000172,-0.00000917,0.00000038,-0.00000011,-0.00000009
 ,-0.00000101,-0.00000017,0.00000007,0.00000038,-0.00000031,0.00000114,
 0.00000100,0.00000573,0.00000069,0.00000030,-0.00000081,-0.00000137,0.
 00000101,0.00000057,-0.00000051,-0.00000060,-0.00000089,0.00000120,0.0
 0049171,0.00021433,-0.00015427,-0.10334814,0.01232611,0.06654669,0.002
 42388,0.00101003,-0.00140311,-0.00535469,0.02407002,0.01429350,-0.0045
 0737,-0.00126357,0.00261997,0.00059845,0.00126466,0.00036044,-0.000683
 99,0.00005448,0.00022015,0.00004367,0.00008142,0.00008866,-0.00004654,
 -0.00003701,-0.00006813,0.00000787,0.00000615,0.00003545,-0.00000905,0
 .00001541,0.00002779,0.00002904,-0.00002307,0.00001893,-0.00001515,0.0
 0000284,-0.00001115,-0.00000971,0.00001595,-0.00000818,0.00001923,-0.0
 0000719,-0.00004001,-0.00001748,0.00000389,0.00000639,0.00000527,-0.00
 012157,-0.00002056,-0.00125194,-0.00093852,-0.00034969,-0.00049537,-0.
 00339250,0.00119094,-0.00020249,-0.00125312,-0.00043135,0.01043935,-0.
 01658661,-0.00994023,-0.08844132,0.07624989,0.05231803,-0.00007717,0.0
 0007750,-0.00018850,-0.00003720,-0.00000451,0.00000547,-0.00000006,0.0
 0000254,0.00000308,-0.00001171,-0.00000774,-0.00002716,0.00000241,-0.0
 0000048,-0.00000251,-0.00001261,-0.00000097,0.00000229,0.00000310,-0.0
 0000062,0.00000495,-0.00001126,-0.00000994,0.00000970,-0.00000083,0.00
 000339,-0.00000346,0.00000038,-0.00000636,0.00000167,-0.00000144,-0.00
 000519,0.00000619,0.00007019,0.00012304,-0.00007564,0.00033015,0.00117
 557,-0.00121689,0.08721437,0.00005640,-0.00010412,0.00132271,-0.002134
 78,0.00314138,-0.00013424,-0.00073317,0.00125414,-0.00132040,-0.000293
 06,0.00010404,0.00013535,-0.00002018,-0.00002381,0.00002727,-0.0000126
 3,0.00001069,0.00003380,-0.00000663,0.00000492,-0.00000459,0.00000226,
 -0.00000062,0.00000130,-0.00000088,0.00000055,0.00000157,0.00000045,-0
 .00000055,-0.00000039,-0.00000044,0.00000023,0.00000045,-0.00000030,0.
 00000046,0.00000027,0.00003620,0.00001164,-0.00002144,0.00000291,-0.00
 000237,-0.00000172,-0.00002531,0.00009679,0.00005110,-0.00029215,0.000
 18417,0.00062088,-0.00370360,0.00019498,-0.00205763,-0.00011502,-0.000
 96985,-0.00048721,0.00890908,-0.01394169,-0.01074494,0.07776236,-0.243
 85657,-0.12019139,0.00013679,0.00000564,0.00026517,0.00000370,0.000001
 99,-0.00000070,-0.00000040,0.00000055,0.00000118,-0.00000103,-0.000000
 13,0.00000011,0.00000017,0.00000013,-0.00000022,-0.00000061,-0.0000000
 1,0.00000027,0.00000058,0.00000004,-0.00000033,-0.00000211,0.00000073,
 0.00000232,0.00000057,-0.00000055,-0.00000025,0.00000055,0.00000054,-0
 .00000061,-0.00000054,-0.00000015,0.00000068,0.00012272,-0.00006486,0.
 00008017,0.00080597,0.00011117,0.00195613,-0.08049784,0.25384049,-0.00
 186141,0.00098773,-0.00201966,0.00257903,-0.00896041,0.00014521,0.0027
 9605,-0.00114770,0.00327369,-0.00028386,-0.00041074,-0.00006706,0.0001
 6656,0.00005324,-0.00012745,-0.00002539,-0.00001891,-0.00002324,0.0000
 1559,0.00000855,0.00001528,-0.00000479,-0.00000037,-0.00001294,0.00000
 188,-0.00000402,-0.00000802,-0.00000709,0.00000605,-0.00000205,0.00000
 469,-0.00000134,0.00000039,0.00000153,-0.00000401,0.00000138,0.0000048
 6,-0.00000097,0.00000711,0.00000079,0.00000124,0.00000123,-0.00001626,
 0.00007945,0.00005683,-0.00000502,0.00084547,-0.00060105,0.00099738,-0
 .00211303,0.00625587,0.00008562,-0.00009894,0.00011942,0.00151403,-0.0
 0222596,0.00169242,0.05304621,-0.11965639,-0.10732666,-0.00013505,0.00
 026653,-0.00049678,0.00001361,0.00000496,-0.00000533,-0.00000013,-0.00
 000016,0.00000021,0.00000566,0.00000100,0.00000948,-0.00000017,0.00000
 001,0.00000045,0.00000366,0.00000021,-0.00000075,-0.00000140,0.0000002
 9,-0.00000004,0.00000368,0.00000203,-0.00000444,-0.00000211,-0.0000016
 3,0.00000136,0.00000071,0.00000248,-0.00000025,-0.00000046,0.00000154,
 -0.00000195,-0.00008165,0.00007913,-0.00026749,-0.00138972,0.00183935,
 -0.00353543,-0.05742704,0.13046532,0.10292024\\-0.00000963,0.00000848,
 0.00001165,-0.00001182,-0.00000214,0.00001136,0.00000342,-0.00001795,0
 .00000126,-0.00001470,0.00003910,-0.00000383,0.00002457,-0.00000784,0.
 00000745,-0.00002436,-0.00000184,-0.00000571,0.00003186,0.00000672,0.0
 0001387,-0.00001026,0.00001966,-0.00000860,-0.00002463,-0.00000027,-0.
 00000824,0.00000908,-0.00001634,0.00000225,-0.00000225,0.00002251,-0.0
 0000829,0.00000567,0.00000862,-0.00000149,0.00001858,-0.00000220,-0.00
 001047,0.00000060,-0.00000511,-0.00001209,-0.00003175,-0.00001405,0.00
 001334,0.00001647,0.00001060,0.00000456,-0.00001874,-0.00000848,0.0000
 0921,0.00000762,-0.00000117,0.00000742,0.00000895,-0.00000480,-0.00000
 179,0.00000635,0.00000937,-0.00000212,0.00001651,-0.00001324,-0.000019
 89,0.00001013,0.00000408,0.00000549,-0.00000203,-0.00000406,0.00000261
 ,-0.00001118,-0.00001213,-0.00000628,0.00000232,0.00000642,-0.00000256
 ,0.00000031,-0.00000175,-0.00000197,0.00000951,-0.00000062,0.00000987,
 -0.00000292,0.00000272,-0.00000671,-0.00000022,-0.00000861,-0.00000165
 ,-0.00000380,0.00000283,-0.00000257,-0.00000157,-0.00000236,-0.0000048
 9,0.00000086,-0.00000497,0.00000417,-0.00000055,-0.00000687,0.00000489
 ,-0.00000241,-0.00000431,-0.00000022\\\@


 IT WAS AN ACT OF DESPARATION. FOR SIX YEARS I HAD STRUGGLED WITH THE
 BLACKBODY THEORY. I KNEW THE PROBLEM WAS FUNDAMENTAL, AND I KNEW
 THE ANSWER. I HAD TO FIND A THEORETICAL EXPLANATION AT ANY COST,
 EXCEPT FOR THE INVIOLABLITY OF THE TWO LAWS OF THERMODYNAMICS.
   -- MAX PLANCK, 1931
 Job cpu time:  0 days  7 hours 57 minutes 16.5 seconds.
 File lengths (MBytes):  RWF=    866 Int=      0 D2E=      0 Chk=     20 Scr=      1
 Normal termination of Gaussian 09 at Sat Mar 23 00:17:17 2019.
