 Entering Gaussian System, Link 0=g09
 Initial command:
 /home/yuheng/proj/yuheng/g09/l1.exe /home/yuheng/proj/yuheng/g09_scratch/Gau-2498.inp -scrdir=/home/yuheng/proj/yuheng/g09_scratch/
 Entering Link 1 = /home/yuheng/proj/yuheng/g09/l1.exe PID=      2499.
  
 Copyright (c) 1988,1990,1992,1993,1995,1998,2003,2009,2010,
            Gaussian, Inc.  All Rights Reserved.
  
 This is part of the Gaussian(R) 09 program.  It is based on
 the Gaussian(R) 03 system (copyright 2003, Gaussian, Inc.),
 the Gaussian(R) 98 system (copyright 1998, Gaussian, Inc.),
 the Gaussian(R) 94 system (copyright 1995, Gaussian, Inc.),
 the Gaussian 92(TM) system (copyright 1992, Gaussian, Inc.),
 the Gaussian 90(TM) system (copyright 1990, Gaussian, Inc.),
 the Gaussian 88(TM) system (copyright 1988, Gaussian, Inc.),
 the Gaussian 86(TM) system (copyright 1986, Carnegie Mellon
 University), and the Gaussian 82(TM) system (copyright 1983,
 Carnegie Mellon University). Gaussian is a federally registered
 trademark of Gaussian, Inc.
  
 This software contains proprietary and confidential information,
 including trade secrets, belonging to Gaussian, Inc.
  
 This software is provided under written license and may be
 used, copied, transmitted, or stored only in accord with that
 written license.
  
 The following legend is applicable only to US Government
 contracts under FAR:
  
                    RESTRICTED RIGHTS LEGEND
  
 Use, reproduction and disclosure by the US Government is
 subject to restrictions as set forth in subparagraphs (a)
 and (c) of the Commercial Computer Software - Restricted
 Rights clause in FAR 52.227-19.
  
 Gaussian, Inc.
 340 Quinnipiac St., Bldg. 40, Wallingford CT 06492
  
  
 ---------------------------------------------------------------
 Warning -- This program may not be used in any manner that
 competes with the business of Gaussian, Inc. or will provide
 assistance to any competitor of Gaussian, Inc.  The licensee
 of this program is prohibited from giving any competitor of
 Gaussian, Inc. access to this program.  By using this program,
 the user acknowledges that Gaussian, Inc. is engaged in the
 business of creating and licensing software in the field of
 computational chemistry and represents and warrants to the
 licensee that it is not a competitor of Gaussian, Inc. and that
 it will not use this program in any manner prohibited above.
 ---------------------------------------------------------------
  

 Cite this work as:
 Gaussian 09, Revision B.01,
 M. J. Frisch, G. W. Trucks, H. B. Schlegel, G. E. Scuseria, 
 M. A. Robb, J. R. Cheeseman, G. Scalmani, V. Barone, B. Mennucci, 
 G. A. Petersson, H. Nakatsuji, M. Caricato, X. Li, H. P. Hratchian, 
 A. F. Izmaylov, J. Bloino, G. Zheng, J. L. Sonnenberg, M. Hada, 
 M. Ehara, K. Toyota, R. Fukuda, J. Hasegawa, M. Ishida, T. Nakajima, 
 Y. Honda, O. Kitao, H. Nakai, T. Vreven, J. A. Montgomery, Jr., 
 J. E. Peralta, F. Ogliaro, M. Bearpark, J. J. Heyd, E. Brothers, 
 K. N. Kudin, V. N. Staroverov, T. Keith, R. Kobayashi, J. Normand, 
 K. Raghavachari, A. Rendell, J. C. Burant, S. S. Iyengar, J. Tomasi, 
 M. Cossi, N. Rega, J. M. Millam, M. Klene, J. E. Knox, J. B. Cross, 
 V. Bakken, C. Adamo, J. Jaramillo, R. Gomperts, R. E. Stratmann, 
 O. Yazyev, A. J. Austin, R. Cammi, C. Pomelli, J. W. Ochterski, 
 R. L. Martin, K. Morokuma, V. G. Zakrzewski, G. A. Voth, 
 P. Salvador, J. J. Dannenberg, S. Dapprich, A. D. Daniels, 
 O. Farkas, J. B. Foresman, J. V. Ortiz, J. Cioslowski, 
 and D. J. Fox, Gaussian, Inc., Wallingford CT, 2010.
 
 ******************************************
 Gaussian 09:  EM64L-G09RevB.01 12-Aug-2010
                22-Mar-2019 
 ******************************************
 %mem=16gb
 %nprocshared=20
 Will use up to   20 processors via shared memory.
 %chk=1b-conf-17.chk
 ----------------------------------------------------------------------
 # m062x/6-31+G(d,p) opt freq=noraman integral(ultrafinegrid) scrf=(ief
 pcm,read,solvent=methanol)
 ----------------------------------------------------------------------
 1/14=-1,18=20,19=15,26=3,38=1,40=2/1,3;
 2/9=110,12=2,17=6,18=5,40=1/2;
 3/5=1,6=6,7=111,11=2,16=1,25=1,30=1,70=2203,71=1,72=3,74=-55,75=-5/1,2,3;
 4//1;
 5/5=2,38=5,53=3/2;
 6/7=2,8=2,9=2,10=2,28=1/1;
 7//1,2,3,16;
 1/14=-1,18=20,19=15/3(2);
 2/9=110/2;
 99//99;
 2/9=110/2;
 3/5=1,6=6,7=111,11=2,16=1,25=1,30=1,70=2205,71=1,72=3,74=-55,75=-5/1,2,3;
 4/5=5,16=3/1;
 5/5=2,38=5,53=3/2;
 7//1,2,3,16;
 1/14=-1,18=20,19=15/3(-5);
 2/9=110/2;
 6/7=2,8=2,9=2,10=2,19=2,28=1/1;
 99/9=1/99;
 ----------------------------------------------------------------------
 Candidate Structure: 1b, Conformer: 17 geometry optimization and frequ
 ency calculation with methanol solvation
 ----------------------------------------------------------------------
 Symbolic Z-matrix:
 Charge =  0 Multiplicity = 1
 O                    -2.97265   2.70021  -2.46813 
 C                    -2.4534    2.92593  -1.22312 
 C                    -1.06397   2.81583  -0.9352 
 C                    -0.06616   2.44388  -1.97648 
 N                     1.17397   2.32787  -1.7512 
 C                     1.84513   2.03526  -2.98788 
 C                     2.97469   0.98634  -2.7823 
 O                     3.67902   0.78846  -3.99725 
 C                     3.97444   1.31628  -1.64162 
 C                     4.68543   2.67019  -1.74455 
 O                     5.22431   3.05222  -0.55718 
 O                     4.79423   3.30886  -2.78892 
 C                     0.70191   1.66808  -3.95937 
 C                     0.44212   0.17264  -4.21796 
 O                    -0.4212    2.18104  -3.26996 
 C                    -0.61469   3.06748   0.3829 
 C                    -1.52356   3.42147   1.39632 
 Cl                   -0.95553   3.72448   2.99667 
 C                    -2.89506   3.5285    1.10524 
 C                    -3.35625   3.28105  -0.20091 
 H                    -2.30828   2.46562  -3.10586 
 H                     2.28805   2.96533  -3.34896 
 H                     2.51975   0.03059  -2.52159 
 H                     4.15671   1.58736  -4.18837 
 H                     4.73402   0.53671  -1.58265 
 H                     3.44566   1.28887  -0.688 
 H                     5.66437   3.88144  -0.66186 
 H                     0.82637   2.18964  -4.90929 
 H                     0.28296  -0.37432  -3.28844 
 H                    -0.44434   0.03631  -4.83716 
 H                     1.27888  -0.28912  -4.7426 
 H                     0.43506   2.9908    0.62701 
 H                    -3.59291   3.80034   1.88351 
 H                    -4.41093   3.36444  -0.42026 
 

 GradGradGradGradGradGradGradGradGradGradGradGradGradGradGradGradGradGrad
 Berny optimization.
 Initialization pass.
                           ----------------------------
                           !    Initial Parameters    !
                           ! (Angstroms and Degrees)  !
 --------------------------                            --------------------------
 ! Name  Definition              Value          Derivative Info.                !
 --------------------------------------------------------------------------------
 ! R1    R(1,2)                  1.3677         estimate D2E/DX2                !
 ! R2    R(1,21)                 0.9503         estimate D2E/DX2                !
 ! R3    R(2,3)                  1.4232         estimate D2E/DX2                !
 ! R4    R(2,20)                 1.4093         estimate D2E/DX2                !
 ! R5    R(3,4)                  1.4894         estimate D2E/DX2                !
 ! R6    R(3,16)                 1.4151         estimate D2E/DX2                !
 ! R7    R(4,5)                  1.2657         estimate D2E/DX2                !
 ! R8    R(4,15)                 1.3668         estimate D2E/DX2                !
 ! R9    R(5,6)                  1.4372         estimate D2E/DX2                !
 ! R10   R(6,7)                  1.5551         estimate D2E/DX2                !
 ! R11   R(6,13)                 1.5445         estimate D2E/DX2                !
 ! R12   R(6,22)                 1.0916         estimate D2E/DX2                !
 ! R13   R(7,8)                  1.4182         estimate D2E/DX2                !
 ! R14   R(7,9)                  1.5523         estimate D2E/DX2                !
 ! R15   R(7,23)                 1.0901         estimate D2E/DX2                !
 ! R16   R(8,24)                 0.9502         estimate D2E/DX2                !
 ! R17   R(9,10)                 1.5327         estimate D2E/DX2                !
 ! R18   R(9,25)                 1.09           estimate D2E/DX2                !
 ! R19   R(9,26)                 1.0908         estimate D2E/DX2                !
 ! R20   R(10,11)                1.3587         estimate D2E/DX2                !
 ! R21   R(10,12)                1.229          estimate D2E/DX2                !
 ! R22   R(11,27)                0.9446         estimate D2E/DX2                !
 ! R23   R(13,14)                1.5397         estimate D2E/DX2                !
 ! R24   R(13,15)                1.4141         estimate D2E/DX2                !
 ! R25   R(13,28)                1.0908         estimate D2E/DX2                !
 ! R26   R(14,29)                1.0902         estimate D2E/DX2                !
 ! R27   R(14,30)                1.0899         estimate D2E/DX2                !
 ! R28   R(14,31)                1.0903         estimate D2E/DX2                !
 ! R29   R(15,21)                1.9155         estimate D2E/DX2                !
 ! R30   R(16,17)                1.4065         estimate D2E/DX2                !
 ! R31   R(16,32)                1.0805         estimate D2E/DX2                !
 ! R32   R(17,18)                1.725          estimate D2E/DX2                !
 ! R33   R(17,19)                1.4061         estimate D2E/DX2                !
 ! R34   R(19,20)                1.4071         estimate D2E/DX2                !
 ! R35   R(19,33)                1.0801         estimate D2E/DX2                !
 ! R36   R(20,34)                1.0805         estimate D2E/DX2                !
 ! A1    A(2,1,21)             112.7176         estimate D2E/DX2                !
 ! A2    A(1,2,3)              122.8214         estimate D2E/DX2                !
 ! A3    A(1,2,20)             117.2987         estimate D2E/DX2                !
 ! A4    A(3,2,20)             119.8799         estimate D2E/DX2                !
 ! A5    A(2,3,4)              122.1362         estimate D2E/DX2                !
 ! A6    A(2,3,16)             118.9876         estimate D2E/DX2                !
 ! A7    A(4,3,16)             118.8762         estimate D2E/DX2                !
 ! A8    A(3,4,5)              123.7005         estimate D2E/DX2                !
 ! A9    A(3,4,15)             122.3858         estimate D2E/DX2                !
 ! A10   A(5,4,15)             113.9098         estimate D2E/DX2                !
 ! A11   A(4,5,6)              108.8482         estimate D2E/DX2                !
 ! A12   A(5,6,7)              111.2712         estimate D2E/DX2                !
 ! A13   A(5,6,13)             104.1216         estimate D2E/DX2                !
 ! A14   A(5,6,22)             107.4961         estimate D2E/DX2                !
 ! A15   A(7,6,13)             117.4148         estimate D2E/DX2                !
 ! A16   A(7,6,22)             108.8862         estimate D2E/DX2                !
 ! A17   A(13,6,22)            107.1476         estimate D2E/DX2                !
 ! A18   A(6,7,8)              109.9736         estimate D2E/DX2                !
 ! A19   A(6,7,9)              114.9352         estimate D2E/DX2                !
 ! A20   A(6,7,23)             108.653          estimate D2E/DX2                !
 ! A21   A(8,7,9)              109.836          estimate D2E/DX2                !
 ! A22   A(8,7,23)             106.8465         estimate D2E/DX2                !
 ! A23   A(9,7,23)             106.2235         estimate D2E/DX2                !
 ! A24   A(7,8,24)             107.7373         estimate D2E/DX2                !
 ! A25   A(7,9,10)             115.9239         estimate D2E/DX2                !
 ! A26   A(7,9,25)             109.6664         estimate D2E/DX2                !
 ! A27   A(7,9,26)             108.9588         estimate D2E/DX2                !
 ! A28   A(10,9,25)            108.188          estimate D2E/DX2                !
 ! A29   A(10,9,26)            107.8061         estimate D2E/DX2                !
 ! A30   A(25,9,26)            105.816          estimate D2E/DX2                !
 ! A31   A(9,10,11)            111.9413         estimate D2E/DX2                !
 ! A32   A(9,10,12)            123.861          estimate D2E/DX2                !
 ! A33   A(11,10,12)           124.1505         estimate D2E/DX2                !
 ! A34   A(10,11,27)           109.5576         estimate D2E/DX2                !
 ! A35   A(6,13,14)            117.4788         estimate D2E/DX2                !
 ! A36   A(6,13,15)            101.2434         estimate D2E/DX2                !
 ! A37   A(6,13,28)            110.4639         estimate D2E/DX2                !
 ! A38   A(14,13,15)           107.4688         estimate D2E/DX2                !
 ! A39   A(14,13,28)           109.7182         estimate D2E/DX2                !
 ! A40   A(15,13,28)           109.9817         estimate D2E/DX2                !
 ! A41   A(13,14,29)           111.6368         estimate D2E/DX2                !
 ! A42   A(13,14,30)           110.7413         estimate D2E/DX2                !
 ! A43   A(13,14,31)           111.2648         estimate D2E/DX2                !
 ! A44   A(29,14,30)           107.6326         estimate D2E/DX2                !
 ! A45   A(29,14,31)           108.0507         estimate D2E/DX2                !
 ! A46   A(30,14,31)           107.3297         estimate D2E/DX2                !
 ! A47   A(4,15,13)            108.9536         estimate D2E/DX2                !
 ! A48   A(3,16,17)            120.7116         estimate D2E/DX2                !
 ! A49   A(3,16,32)            120.4156         estimate D2E/DX2                !
 ! A50   A(17,16,32)           118.8728         estimate D2E/DX2                !
 ! A51   A(16,17,18)           119.9917         estimate D2E/DX2                !
 ! A52   A(16,17,19)           120.0171         estimate D2E/DX2                !
 ! A53   A(18,17,19)           119.9912         estimate D2E/DX2                !
 ! A54   A(17,19,20)           119.8981         estimate D2E/DX2                !
 ! A55   A(17,19,33)           120.0123         estimate D2E/DX2                !
 ! A56   A(20,19,33)           120.0896         estimate D2E/DX2                !
 ! A57   A(2,20,19)            120.5057         estimate D2E/DX2                !
 ! A58   A(2,20,34)            119.8374         estimate D2E/DX2                !
 ! A59   A(19,20,34)           119.6569         estimate D2E/DX2                !
 ! D1    D(21,1,2,3)             0.0012         estimate D2E/DX2                !
 ! D2    D(21,1,2,20)         -179.9916         estimate D2E/DX2                !
 ! D3    D(1,2,3,4)             -0.0022         estimate D2E/DX2                !
 ! D4    D(1,2,3,16)          -179.993          estimate D2E/DX2                !
 ! D5    D(20,2,3,4)           179.9904         estimate D2E/DX2                !
 ! D6    D(20,2,3,16)           -0.0004         estimate D2E/DX2                !
 ! D7    D(1,2,20,19)          179.9986         estimate D2E/DX2                !
 ! D8    D(1,2,20,34)           -0.0072         estimate D2E/DX2                !
 ! D9    D(3,2,20,19)            0.0057         estimate D2E/DX2                !
 ! D10   D(3,2,20,34)          179.9998         estimate D2E/DX2                !
 ! D11   D(2,3,4,5)           -179.459          estimate D2E/DX2                !
 ! D12   D(2,3,4,15)            -0.2253         estimate D2E/DX2                !
 ! D13   D(16,3,4,5)             0.5318         estimate D2E/DX2                !
 ! D14   D(16,3,4,15)          179.7654         estimate D2E/DX2                !
 ! D15   D(2,3,16,17)           -0.007          estimate D2E/DX2                !
 ! D16   D(2,3,16,32)         -179.9842         estimate D2E/DX2                !
 ! D17   D(4,3,16,17)         -179.9981         estimate D2E/DX2                !
 ! D18   D(4,3,16,32)            0.0247         estimate D2E/DX2                !
 ! D19   D(3,4,5,6)           -176.7493         estimate D2E/DX2                !
 ! D20   D(15,4,5,6)             3.9586         estimate D2E/DX2                !
 ! D21   D(3,4,15,13)         -171.3222         estimate D2E/DX2                !
 ! D22   D(5,4,15,13)            7.9804         estimate D2E/DX2                !
 ! D23   D(4,5,6,7)           -140.4279         estimate D2E/DX2                !
 ! D24   D(4,5,6,13)           -13.024          estimate D2E/DX2                !
 ! D25   D(4,5,6,22)           100.4338         estimate D2E/DX2                !
 ! D26   D(5,6,7,8)           -175.8988         estimate D2E/DX2                !
 ! D27   D(5,6,7,9)            -51.3478         estimate D2E/DX2                !
 ! D28   D(5,6,7,23)            67.4768         estimate D2E/DX2                !
 ! D29   D(13,6,7,8)            64.3085         estimate D2E/DX2                !
 ! D30   D(13,6,7,9)          -171.1406         estimate D2E/DX2                !
 ! D31   D(13,6,7,23)          -52.3159         estimate D2E/DX2                !
 ! D32   D(22,6,7,8)           -57.5941         estimate D2E/DX2                !
 ! D33   D(22,6,7,9)            66.9568         estimate D2E/DX2                !
 ! D34   D(22,6,7,23)         -174.2185         estimate D2E/DX2                !
 ! D35   D(5,6,13,14)         -100.1011         estimate D2E/DX2                !
 ! D36   D(5,6,13,15)           16.5381         estimate D2E/DX2                !
 ! D37   D(5,6,13,28)          133.0291         estimate D2E/DX2                !
 ! D38   D(7,6,13,14)           23.3967         estimate D2E/DX2                !
 ! D39   D(7,6,13,15)          140.0359         estimate D2E/DX2                !
 ! D40   D(7,6,13,28)         -103.4731         estimate D2E/DX2                !
 ! D41   D(22,6,13,14)         146.1921         estimate D2E/DX2                !
 ! D42   D(22,6,13,15)         -97.1687         estimate D2E/DX2                !
 ! D43   D(22,6,13,28)          19.3223         estimate D2E/DX2                !
 ! D44   D(6,7,8,24)            68.1901         estimate D2E/DX2                !
 ! D45   D(9,7,8,24)           -59.2531         estimate D2E/DX2                !
 ! D46   D(23,7,8,24)         -174.0597         estimate D2E/DX2                !
 ! D47   D(6,7,9,10)           -56.3374         estimate D2E/DX2                !
 ! D48   D(6,7,9,25)          -179.1765         estimate D2E/DX2                !
 ! D49   D(6,7,9,26)            65.4316         estimate D2E/DX2                !
 ! D50   D(8,7,9,10)            68.2858         estimate D2E/DX2                !
 ! D51   D(8,7,9,25)           -54.5533         estimate D2E/DX2                !
 ! D52   D(8,7,9,26)          -169.9451         estimate D2E/DX2                !
 ! D53   D(23,7,9,10)         -176.5111         estimate D2E/DX2                !
 ! D54   D(23,7,9,25)           60.6498         estimate D2E/DX2                !
 ! D55   D(23,7,9,26)          -54.742          estimate D2E/DX2                !
 ! D56   D(7,9,10,11)          162.1362         estimate D2E/DX2                !
 ! D57   D(7,9,10,12)          -20.2729         estimate D2E/DX2                !
 ! D58   D(25,9,10,11)         -74.2507         estimate D2E/DX2                !
 ! D59   D(25,9,10,12)         103.3402         estimate D2E/DX2                !
 ! D60   D(26,9,10,11)          39.7559         estimate D2E/DX2                !
 ! D61   D(26,9,10,12)        -142.6532         estimate D2E/DX2                !
 ! D62   D(9,10,11,27)         179.1121         estimate D2E/DX2                !
 ! D63   D(12,10,11,27)          1.5295         estimate D2E/DX2                !
 ! D64   D(6,13,14,29)          54.4826         estimate D2E/DX2                !
 ! D65   D(6,13,14,30)         174.3949         estimate D2E/DX2                !
 ! D66   D(6,13,14,31)         -66.3195         estimate D2E/DX2                !
 ! D67   D(15,13,14,29)        -58.7255         estimate D2E/DX2                !
 ! D68   D(15,13,14,30)         61.1868         estimate D2E/DX2                !
 ! D69   D(15,13,14,31)       -179.5276         estimate D2E/DX2                !
 ! D70   D(28,13,14,29)       -178.2863         estimate D2E/DX2                !
 ! D71   D(28,13,14,30)        -58.374          estimate D2E/DX2                !
 ! D72   D(28,13,14,31)         60.9116         estimate D2E/DX2                !
 ! D73   D(6,13,15,4)          -14.876          estimate D2E/DX2                !
 ! D74   D(14,13,15,4)         108.8867         estimate D2E/DX2                !
 ! D75   D(28,13,15,4)        -131.7208         estimate D2E/DX2                !
 ! D76   D(3,16,17,18)        -179.9872         estimate D2E/DX2                !
 ! D77   D(3,16,17,19)           0.0091         estimate D2E/DX2                !
 ! D78   D(32,16,17,18)         -0.0097         estimate D2E/DX2                !
 ! D79   D(32,16,17,19)        179.9867         estimate D2E/DX2                !
 ! D80   D(16,17,19,20)         -0.0038         estimate D2E/DX2                !
 ! D81   D(16,17,19,33)       -179.9997         estimate D2E/DX2                !
 ! D82   D(18,17,19,20)        179.9926         estimate D2E/DX2                !
 ! D83   D(18,17,19,33)         -0.0034         estimate D2E/DX2                !
 ! D84   D(17,19,20,2)          -0.0036         estimate D2E/DX2                !
 ! D85   D(17,19,20,34)       -179.9977         estimate D2E/DX2                !
 ! D86   D(33,19,20,2)         179.9924         estimate D2E/DX2                !
 ! D87   D(33,19,20,34)         -0.0018         estimate D2E/DX2                !
 --------------------------------------------------------------------------------
 Trust Radius=3.00D-01 FncErr=1.00D-07 GrdErr=1.00D-06
 Number of steps in this run=    192 maximum allowed number of steps=    204.
 GradGradGradGradGradGradGradGradGradGradGradGradGradGradGradGradGradGrad

                          Input orientation:                          
 ---------------------------------------------------------------------
 Center     Atomic      Atomic             Coordinates (Angstroms)
 Number     Number       Type             X           Y           Z
 ---------------------------------------------------------------------
      1          8           0       -2.972649    2.700212   -2.468132
      2          6           0       -2.453401    2.925933   -1.223116
      3          6           0       -1.063969    2.815827   -0.935197
      4          6           0       -0.066159    2.443880   -1.976475
      5          7           0        1.173965    2.327873   -1.751204
      6          6           0        1.845125    2.035258   -2.987884
      7          6           0        2.974691    0.986342   -2.782303
      8          8           0        3.679017    0.788462   -3.997254
      9          6           0        3.974441    1.316282   -1.641618
     10          6           0        4.685434    2.670187   -1.744550
     11          8           0        5.224315    3.052217   -0.557183
     12          8           0        4.794229    3.308858   -2.788915
     13          6           0        0.701907    1.668076   -3.959366
     14          6           0        0.442119    0.172641   -4.217956
     15          8           0       -0.421203    2.181043   -3.269961
     16          6           0       -0.614694    3.067484    0.382897
     17          6           0       -1.523556    3.421470    1.396319
     18         17           0       -0.955528    3.724476    2.996666
     19          6           0       -2.895058    3.528496    1.105236
     20          6           0       -3.356248    3.281049   -0.200909
     21          1           0       -2.308278    2.465616   -3.105857
     22          1           0        2.288050    2.965333   -3.348956
     23          1           0        2.519752    0.030591   -2.521586
     24          1           0        4.156708    1.587364   -4.188374
     25          1           0        4.734018    0.536709   -1.582651
     26          1           0        3.445657    1.288870   -0.687999
     27          1           0        5.664373    3.881436   -0.661862
     28          1           0        0.826373    2.189643   -4.909290
     29          1           0        0.282959   -0.374315   -3.288438
     30          1           0       -0.444338    0.036309   -4.837160
     31          1           0        1.278881   -0.289116   -4.742604
     32          1           0        0.435059    2.990796    0.627010
     33          1           0       -3.592913    3.800335    1.883512
     34          1           0       -4.410934    3.364445   -0.420256
 ---------------------------------------------------------------------
                    Distance matrix (angstroms):
                    1          2          3          4          5
     1  O    0.000000
     2  C    1.367711   0.000000
     3  C    2.450779   1.423215   0.000000
     4  C    2.958905   2.549284   1.489372   0.000000
     5  N    4.224575   3.714073   2.431525   1.265746   0.000000
     6  C    4.891140   4.731282   3.644947   2.200665   1.437170
     7  C    6.197331   5.971370   4.803081   3.467066   2.470928
     8  O    7.087853   7.061953   5.998526   4.566213   3.699975
     9  C    7.131651   6.639524   5.304078   4.208332   2.979596
    10  C    7.692250   7.162420   5.807917   4.762630   3.528121
    11  O    8.424123   7.707577   6.304069   5.511223   4.284355
    12  O    7.797291   7.424722   6.164238   5.003161   3.891720
    13  C    4.097737   4.361793   3.685275   2.263549   2.352477
    14  C    4.594686   4.993368   4.475627   3.231271   3.356410
    15  O    2.724398   2.978970   2.503442   1.366838   2.207429
    16  C    3.717957   2.445436   1.415115   2.501281   2.881096
    17  C    4.189757   2.823404   2.452344   3.802029   4.287129
    18  Cl   5.914551   4.548390   4.036948   5.211817   5.387718
    19  C    3.668928   2.445274   2.832693   4.321574   5.114459
    20  C    2.371670   1.409307   2.451561   3.831210   4.882089
    21  H    0.950325   1.943622   2.526404   2.510592   3.738994
    22  H    5.340514   5.196355   4.133354   2.774512   2.049476
    23  H    6.107062   5.899261   4.808038   3.578833   2.771667
    24  H    7.417910   7.367365   6.272779   4.843421   3.922360
    25  H    8.053418   7.582654   6.263404   5.180164   3.988816
    26  H    6.808481   6.145341   4.767539   3.914980   2.714870
    27  H    8.902587   8.193061   6.817684   6.052584   4.874832
    28  H    4.544502   4.988679   4.445100   3.076143   3.180163
    29  H    4.552428   4.758661   4.186761   3.128155   3.234007
    30  H    4.370472   5.044559   4.830629   3.758050   4.170527
    31  H    5.673166   6.054194   5.442974   4.114592   3.975942
    32  H    4.612680   3.430798   2.172139   2.707115   2.577082
    33  H    4.531203   3.422602   3.912791   5.401617   6.172717
    34  H    2.589144   2.160743   3.430499   4.705988   5.834124
                    6          7          8          9         10
     6  C    0.000000
     7  C    1.555123   0.000000
     8  O    2.436491   1.418216   0.000000
     9  C    2.619799   1.552264   2.432055   0.000000
    10  C    3.164865   2.615130   3.102973   1.532699   0.000000
    11  O    4.285025   3.778863   4.398479   2.398261   1.358742
    12  O    3.218518   2.950397   3.009348   2.441045   1.228998
    13  C    1.544522   2.648733   3.104568   4.025567   4.666704
    14  C    2.636446   3.022769   3.302341   4.519152   5.510099
    15  O    2.288463   3.632797   4.390904   4.766655   5.351998
    16  C    4.298647   5.218556   6.543364   5.312770   5.724966
    17  C    5.700073   6.604919   7.942929   6.624866   6.998646
    18  Cl   6.819967   7.506030   8.888988   7.184544   7.443864
    19  C    6.438379   7.485283   8.761373   7.721989   8.143822
    20  C    6.031045   7.211800   8.373779   7.724957   8.211250
    21  H    4.177306   5.495698   6.281332   6.552673   7.127904
    22  H    1.091602   2.170018   2.663428   2.911750   2.899772
    23  H    2.165928   1.090139   2.023823   2.131541   3.501633
    24  H    2.642953   1.932725   0.950242   2.567620   2.724763
    25  H    3.544860   2.176365   2.647020   1.090031   2.140164
    26  H    2.899701   2.167820   3.355001   1.090758   2.135740
    27  H    4.837913   4.484666   4.963161   3.224253   1.896750
    28  H    2.180250   3.253810   3.306463   4.620690   5.013866
    29  H    2.887341   3.058264   3.658918   4.381458   5.570850
    30  H    3.557704   4.100580   4.274720   5.601377   6.543402
    31  H    2.966882   2.888831   2.734479   4.411288   5.417601
    32  H    3.996098   4.700104   6.062785   4.525251   4.877784
    33  H    7.511208   8.533570   9.825261   8.709874   9.108847
    34  H    6.891859   8.110616   9.212921   8.717867   9.218441
                   11         12         13         14         15
    11  O    0.000000
    12  O    2.287240   0.000000
    13  C    5.826051   4.561712   0.000000
    14  C    6.675524   5.551475   1.539703   0.000000
    15  O    6.323763   5.357621   1.414139   2.382792   0.000000
    16  C    5.914221   6.274958   4.748371   5.537582   3.763853
    17  C    7.034649   7.579134   6.058914   6.777821   4.952576
    18  Cl   7.160463   8.167337   7.440581   8.162090   6.475979
    19  C    8.301488   8.621936   6.484560   7.122843   5.203647
    20  C    8.591004   8.551539   5.761623   6.342433   4.386751
    21  H    7.973694   7.159407   3.228895   3.749558   1.915454
    22  H    4.052554   2.590866   2.138066   3.458576   2.821596
    23  H    4.505970   3.998968   2.837804   2.685965   3.719372
    24  H    4.058464   2.308346   3.463323   3.974983   4.706719
    25  H    2.760391   3.023823   4.815255   5.049532   5.668082
    26  H    2.508013   3.211362   4.286467   4.767369   4.734459
    27  H    0.944570   2.368407   6.355986   7.326179   6.835770
    28  H    6.247140   4.636002   1.090816   2.166539   2.060078
    29  H    6.604383   5.845241   2.190211   1.090182   2.650668
    30  H    7.716705   6.507493   2.178776   1.089865   2.656413
    31  H    6.651970   5.396294   2.185626   1.090250   3.340756
    32  H    4.933869   5.547258   4.780757   5.604975   4.071273
    33  H    9.179335   9.613390   7.558520   8.165143   6.264195
    34  H    9.641279   9.505191   6.445472   6.939904   5.043730
                   16         17         18         19         20
    16  C    0.000000
    17  C    1.406542   0.000000
    18  Cl   2.716541   1.724987   0.000000
    19  C    2.436055   1.406130   2.716191   0.000000
    20  C    2.811149   2.435080   4.023005   1.407104   0.000000
    21  H    3.924522   4.668944   6.376162   4.382617   3.194041
    22  H    4.728962   6.103608   7.166869   6.857229   6.470547
    23  H    5.242470   6.572395   7.494896   7.396577   7.104815
    24  H    6.771525   8.174236   9.073423   9.028716   8.672540
    25  H    6.235136   7.506886   7.968873   8.624287   8.654075
    26  H    4.560344   5.795295   6.235332   6.959618   7.104361
    27  H    6.417221   7.490928   7.565220   8.747060   9.052323
    28  H    5.554685   6.841072   8.248335   7.198340   6.391740
    29  H    5.111796   6.294317   7.605029   6.681025   6.011518
    30  H    6.038712   7.174976   8.673680   7.315290   6.364148
    31  H    6.412733   7.701200   8.999878   8.135918   7.406584
    32  H    1.080488   2.147903   2.843816   3.406978   3.891491
    33  H    3.414484   2.159429   2.863681   1.080098   2.161129
    34  H    3.891616   3.411766   4.872865   2.156831   1.080477
                   21         22         23         24         25
    21  H    0.000000
    22  H    4.629800   0.000000
    23  H    5.438804   3.057930   0.000000
    24  H    6.613563   2.468867   2.807374   0.000000
    25  H    7.458872   3.873088   2.457789   2.868267   0.000000
    26  H    6.351263   3.351309   2.408860   3.584315   1.739547
    27  H    8.458181   4.411267   5.308128   4.469016   3.591742
    28  H    3.626923   2.274387   3.637330   3.460288   5.391513
    29  H    3.848773   3.895806   2.399011   4.434411   4.852999
    30  H    3.517558   4.273158   3.761349   4.898604   6.136579
    31  H    4.809906   3.681320   2.564156   3.479976   4.754499
    32  H    4.662189   4.386631   4.798168   6.245656   5.420903
    33  H    5.322177   7.915913   8.424994  10.090672   9.591836
    34  H    3.527252   7.322087   7.972740   9.526868   9.642479
                   26         27         28         29         30
    26  H    0.000000
    27  H    3.412445   0.000000
    28  H    5.048895   6.656505   0.000000
    29  H    4.419403   7.346423   3.081613   0.000000
    30  H    5.823788   8.338733   2.501351   1.759577   0.000000
    31  H    4.860533   7.299212   2.525231   1.764573   1.756225
    32  H    3.699933   5.458952   5.607637   5.165059   6.273714
    33  H    7.903265   9.601190   8.262359   7.694099   8.321589
    34  H    8.130542  10.091455   6.997212   6.651122   6.805837
                   31         32         33         34
    31  H    0.000000
    32  H    6.348434   0.000000
    33  H    9.184955   4.296360   0.000000
    34  H    8.025285   4.971924   2.483245   0.000000
 Stoichiometry    C13H14ClNO5
 Framework group  C1[X(C13H14ClNO5)]
 Deg. of freedom    96
 Full point group                 C1      NOp   1
 Largest Abelian subgroup         C1      NOp   1
 Largest concise Abelian subgroup C1      NOp   1
                         Standard orientation:                         
 ---------------------------------------------------------------------
 Center     Atomic      Atomic             Coordinates (Angstroms)
 Number     Number       Type             X           Y           Z
 ---------------------------------------------------------------------
      1          8           0       -2.478334   -2.851769   -0.582703
      2          6           0       -2.748998   -1.532783   -0.342597
      3          6           0       -1.729313   -0.557311   -0.157556
      4          6           0       -0.281901   -0.904070   -0.212204
      5          7           0        0.648657   -0.063065   -0.042245
      6          6           0        1.911055   -0.721722   -0.237124
      7          6           0        2.967301   -0.233560    0.794597
      8          8           0        4.224740   -0.828781    0.519107
      9          6           0        3.124005    1.307743    0.891312
     10          6           0        3.463936    2.030106   -0.417047
     11          8           0        3.204884    3.361912   -0.343801
     12          8           0        3.956363    1.475923   -1.397267
     13          6           0        1.556173   -2.224919   -0.234477
     14          6           0        1.807880   -3.012037    1.064666
     15          8           0        0.157591   -2.178399   -0.438428
     16          6           0       -2.101476    0.785992    0.086540
     17          6           0       -3.457076    1.156340    0.146126
     18         17           0       -3.889786    2.799304    0.444474
     19          6           0       -4.459651    0.187671   -0.037519
     20          6           0       -4.104467   -1.151933   -0.280926
     21          1           0       -1.546459   -3.036000   -0.610748
     22          1           0        2.258361   -0.474796   -1.242113
     23          1           0        2.668066   -0.572123    1.786684
     24          1           0        4.541196   -0.470013   -0.301930
     25          1           0        3.892019    1.553080    1.624887
     26          1           0        2.197315    1.734653    1.276991
     27          1           0        3.438566    3.774879   -1.160540
     28          1           0        2.038238   -2.732054   -1.071320
     29          1           0        1.313470   -2.547733    1.918175
     30          1           0        1.429983   -4.030625    0.978191
     31          1           0        2.873238   -3.078643    1.286528
     32          1           0       -1.346367    1.545370    0.230095
     33          1           0       -5.500605    0.472153    0.008249
     34          1           0       -4.878032   -1.893057   -0.421509
 ---------------------------------------------------------------------
 Rotational constants (GHZ):      0.4149598      0.1788466      0.1321010
 Standard basis: 6-31+G(d,p) (6D, 7F)
 There are   454 symmetry adapted basis functions of A   symmetry.
 Integral buffers will be    131072 words long.
 Raffenetti 2 integral format.
 Two-electron integral symmetry is turned on.
   454 basis functions,   762 primitive gaussians,   454 cartesian basis functions
    78 alpha electrons       78 beta electrons
       nuclear repulsion energy      1676.6529350898 Hartrees.
 NAtoms=   34 NActive=   34 NUniq=   34 SFac= 1.00D+00 NAtFMM=   50 NAOKFM=F Big=F
 Using the following non-standard input for PCM:
 radii=UA0
 --- end of non-standard input.
 ------------------------------------------------------------------------------
 United Atom Topological Model (UA0  parameters set).
  Nord Group  Hybr  Charge Alpha Radius          Bonded to
    1   OH    *     0.00   1.10  1.850   C2   [s]
    2   C     *     0.00   1.10  1.925   O1   [s]  C3   [s]  C20  [s]
    3   C     *     0.00   1.10  1.925   C2   [s]  C4   [s]  C16  [s]
    4   C     *     0.00   1.10  1.925   C3   [s]  N5   [d]  O15  [s]
    5   N     *     0.00   1.10  1.830   C4   [d]  C6   [s]
    6   CH    *     0.00   1.10  2.125   N5   [s]  C7   [s]  C13  [s]
    7   CH    *     0.00   1.10  2.125   C6   [s]  O8   [s]  C9   [s]
    8   OH    *     0.00   1.10  1.850   C7   [s]
    9   CH2   *     0.00   1.10  2.325   C7   [s]  C10  [s]
   10   C     *     0.00   1.10  1.925   C9   [s]  O11  [s]  O12  [d]
   11   OH    *     0.00   1.10  1.850   C10  [s]
   12   O     *     0.00   1.10  1.750   C10  [d]
   13   CH    *     0.00   1.10  2.125   C6   [s]  C14  [s]  O15  [s]
   14   CH3   *     0.00   1.10  2.525   C13  [s]
   15   O     *     0.00   1.10  1.750   C4   [s]  C13  [s]
   16   CH    *     0.00   1.10  2.125   C3   [s]  C17  [s]
   17   C     *     0.00   1.10  1.925   C16  [s] Cl18  [s]  C19  [s]
   18  Cl     *     0.00   1.10  1.973   C17  [s]
   19   CH    *     0.00   1.10  2.125   C17  [s]  C20  [s]
   20   CH    *     0.00   1.10  2.125   C2   [s]  C19  [s]
 ------------------------------------------------------------------------------
 Polarizable Continuum Model (PCM)
 =================================
 Model                : PCM.
 Atomic radii         : UA0 (Simple United Atom Topological Model).
 Polarization charges : Total charges.
 Charge compensation  : None.
 Solution method      : Matrix inversion.
 Cavity type          : Scaled VdW (van der Waals Surface) (Alpha=1.100).
 Cavity algorithm     : GePol (No added spheres)
                        Default sphere list used, NSphG=   20.
                        Lebedev-Laikov grids with approx.  5.0 points / Ang**2.
                        Smoothing algorithm: Karplus/York (Gamma=1.0000).
                        Polarization charges: spherical gaussians, with
                                              point-specific exponents (IZeta= 3).
                        Self-potential: point-specific (ISelfS= 7).
                        Self-field    : sphere-specific E.n sum rule (ISelfD= 2).
 1st derivatives      : Analytical E(r).r(x)/FMM algorithm (CHGder, D1EAlg=3).
                        Cavity 1st derivative terms included.
 Solvent              : Methanol, Eps=  32.613000 Eps(inf)=   1.765709
 ------------------------------------------------------------------------------
 Spheres list:
 ISph  on   Nord    Re0     Alpha      Xe            Ye            Ze
    1   O      1    1.850   1.100     -2.478334     -2.851769     -0.582703
    2   C      2    1.925   1.100     -2.748998     -1.532783     -0.342597
    3   C      3    1.925   1.100     -1.729313     -0.557311     -0.157556
    4   C      4    1.925   1.100     -0.281901     -0.904070     -0.212204
    5   N      5    1.830   1.100      0.648657     -0.063065     -0.042245
    6   C      6    2.125   1.100      1.911055     -0.721722     -0.237124
    7   C      7    2.125   1.100      2.967301     -0.233560      0.794597
    8   O      8    1.850   1.100      4.224740     -0.828781      0.519107
    9   C      9    2.325   1.100      3.124005      1.307743      0.891312
   10   C     10    1.925   1.100      3.463936      2.030106     -0.417047
   11   O     11    1.850   1.100      3.204884      3.361912     -0.343801
   12   O     12    1.750   1.100      3.956363      1.475923     -1.397267
   13   C     13    2.125   1.100      1.556173     -2.224919     -0.234477
   14   C     14    2.525   1.100      1.807880     -3.012037      1.064666
   15   O     15    1.750   1.100      0.157591     -2.178399     -0.438428
   16   C     16    2.125   1.100     -2.101476      0.785992      0.086540
   17   C     17    1.925   1.100     -3.457076      1.156340      0.146126
   18  Cl     18    1.973   1.100     -3.889786      2.799304      0.444474
   19   C     19    2.125   1.100     -4.459651      0.187671     -0.037519
   20   C     20    2.125   1.100     -4.104467     -1.151933     -0.280926
 ------------------------------------------------------------------------------
 One-electron integrals computed using PRISM.
 NBasis=   454 RedAO= T  NBF=   454
 NBsUse=   452 1.00D-06 NBFU=   452
 Harris functional with IExCor= 1009 diagonalized for initial guess.
 ExpMin= 4.38D-02 ExpMax= 2.52D+04 ExpMxC= 3.78D+03 IAcc=3 IRadAn=         5 AccDes= 0.00D+00
 HarFok:  IExCor= 1009 AccDes= 0.00D+00 IRadAn=         5 IDoV= 1
 ScaDFX=  1.000000  1.000000  1.000000  1.000000
 FoFCou: FMM=F IPFlag=           0 FMFlag=      100000 FMFlg1=           0
         NFxFlg=           0 DoJE=T BraDBF=F KetDBF=T FulRan=T
         Omega=  0.000000  0.000000  1.000000  0.000000  0.000000 ICntrl=     500 IOpCl=  0
         NMat0=    1 NMatS0=    1 NMatT0=    0 NMatD0=    1 NMtDS0=    0 NMtDT0=    0
         I1Cent=           4 NGrid=           0.
 Petite list used in FoFCou.
 Initial guess orbital symmetries:
       Occupied  (A) (A) (A) (A) (A) (A) (A) (A) (A) (A) (A) (A)
                 (A) (A) (A) (A) (A) (A) (A) (A) (A) (A) (A) (A)
                 (A) (A) (A) (A) (A) (A) (A) (A) (A) (A) (A) (A)
                 (A) (A) (A) (A) (A) (A) (A) (A) (A) (A) (A) (A)
                 (A) (A) (A) (A) (A) (A) (A) (A) (A) (A) (A) (A)
                 (A) (A) (A) (A) (A) (A) (A) (A) (A) (A) (A) (A)
                 (A) (A) (A) (A) (A) (A)
       Virtual   (A) (A) (A) (A) (A) (A) (A) (A) (A) (A) (A) (A)
                 (A) (A) (A) (A) (A) (A) (A) (A) (A) (A) (A) (A)
                 (A) (A) (A) (A) (A) (A) (A) (A) (A) (A) (A) (A)
                 (A) (A) (A) (A) (A) (A) (A) (A) (A) (A) (A) (A)
                 (A) (A) (A) (A) (A) (A) (A) (A) (A) (A) (A) (A)
                 (A) (A) (A) (A) (A) (A) (A) (A) (A) (A) (A) (A)
                 (A) (A) (A) (A) (A) (A) (A) (A) (A) (A) (A) (A)
                 (A) (A) (A) (A) (A) (A) (A) (A) (A) (A) (A) (A)
                 (A) (A) (A) (A) (A) (A) (A) (A) (A) (A) (A) (A)
                 (A) (A) (A) (A) (A) (A) (A) (A) (A) (A) (A) (A)
                 (A) (A) (A) (A) (A) (A) (A) (A) (A) (A) (A) (A)
                 (A) (A) (A) (A) (A) (A) (A) (A) (A) (A) (A) (A)
                 (A) (A) (A) (A) (A) (A) (A) (A) (A) (A) (A) (A)
                 (A) (A) (A) (A) (A) (A) (A) (A) (A) (A) (A) (A)
                 (A) (A) (A) (A) (A) (A) (A) (A) (A) (A) (A) (A)
                 (A) (A) (A) (A) (A) (A) (A) (A) (A) (A) (A) (A)
                 (A) (A) (A) (A) (A) (A) (A) (A) (A) (A) (A) (A)
                 (A) (A) (A) (A) (A) (A) (A) (A) (A) (A) (A) (A)
                 (A) (A) (A) (A) (A) (A) (A) (A) (A) (A) (A) (A)
                 (A) (A) (A) (A) (A) (A) (A) (A) (A) (A) (A) (A)
                 (A) (A) (A) (A) (A) (A) (A) (A) (A) (A) (A) (A)
                 (A) (A) (A) (A) (A) (A) (A) (A) (A) (A) (A) (A)
                 (A) (A) (A) (A) (A) (A) (A) (A) (A) (A) (A) (A)
                 (A) (A) (A) (A) (A) (A) (A) (A) (A) (A) (A) (A)
                 (A) (A) (A) (A) (A) (A) (A) (A) (A) (A) (A) (A)
                 (A) (A) (A) (A) (A) (A) (A) (A) (A) (A) (A) (A)
                 (A) (A) (A) (A) (A) (A) (A) (A) (A) (A) (A) (A)
                 (A) (A) (A) (A) (A) (A) (A) (A) (A) (A) (A) (A)
                 (A) (A) (A) (A) (A) (A) (A) (A) (A) (A) (A) (A)
                 (A) (A) (A) (A) (A) (A) (A) (A) (A) (A) (A) (A)
                 (A) (A) (A) (A) (A) (A) (A) (A) (A) (A) (A) (A)
                 (A) (A)
 The electronic state of the initial guess is 1-A.
 Requested convergence on RMS density matrix=1.00D-08 within 128 cycles.
 Requested convergence on MAX density matrix=1.00D-06.
 Requested convergence on             energy=1.00D-06.
 No special actions if energy rises.
 Error on total polarization charges =  0.01446
 SCF Done:  E(RM062X) =  -1394.55963989     A.U. after   15 cycles
             Convg  =    0.5200D-08             -V/T =  2.0067

 **********************************************************************

            Population analysis using the SCF density.

 **********************************************************************

 Orbital symmetries:
       Occupied  (A) (A) (A) (A) (A) (A) (A) (A) (A) (A) (A) (A)
                 (A) (A) (A) (A) (A) (A) (A) (A) (A) (A) (A) (A)
                 (A) (A) (A) (A) (A) (A) (A) (A) (A) (A) (A) (A)
                 (A) (A) (A) (A) (A) (A) (A) (A) (A) (A) (A) (A)
                 (A) (A) (A) (A) (A) (A) (A) (A) (A) (A) (A) (A)
                 (A) (A) (A) (A) (A) (A) (A) (A) (A) (A) (A) (A)
                 (A) (A) (A) (A) (A) (A)
       Virtual   (A) (A) (A) (A) (A) (A) (A) (A) (A) (A) (A) (A)
                 (A) (A) (A) (A) (A) (A) (A) (A) (A) (A) (A) (A)
                 (A) (A) (A) (A) (A) (A) (A) (A) (A) (A) (A) (A)
                 (A) (A) (A) (A) (A) (A) (A) (A) (A) (A) (A) (A)
                 (A) (A) (A) (A) (A) (A) (A) (A) (A) (A) (A) (A)
                 (A) (A) (A) (A) (A) (A) (A) (A) (A) (A) (A) (A)
                 (A) (A) (A) (A) (A) (A) (A) (A) (A) (A) (A) (A)
                 (A) (A) (A) (A) (A) (A) (A) (A) (A) (A) (A) (A)
                 (A) (A) (A) (A) (A) (A) (A) (A) (A) (A) (A) (A)
                 (A) (A) (A) (A) (A) (A) (A) (A) (A) (A) (A) (A)
                 (A) (A) (A) (A) (A) (A) (A) (A) (A) (A) (A) (A)
                 (A) (A) (A) (A) (A) (A) (A) (A) (A) (A) (A) (A)
                 (A) (A) (A) (A) (A) (A) (A) (A) (A) (A) (A) (A)
                 (A) (A) (A) (A) (A) (A) (A) (A) (A) (A) (A) (A)
                 (A) (A) (A) (A) (A) (A) (A) (A) (A) (A) (A) (A)
                 (A) (A) (A) (A) (A) (A) (A) (A) (A) (A) (A) (A)
                 (A) (A) (A) (A) (A) (A) (A) (A) (A) (A) (A) (A)
                 (A) (A) (A) (A) (A) (A) (A) (A) (A) (A) (A) (A)
                 (A) (A) (A) (A) (A) (A) (A) (A) (A) (A) (A) (A)
                 (A) (A) (A) (A) (A) (A) (A) (A) (A) (A) (A) (A)
                 (A) (A) (A) (A) (A) (A) (A) (A) (A) (A) (A) (A)
                 (A) (A) (A) (A) (A) (A) (A) (A) (A) (A) (A) (A)
                 (A) (A) (A) (A) (A) (A) (A) (A) (A) (A) (A) (A)
                 (A) (A) (A) (A) (A) (A) (A) (A) (A) (A) (A) (A)
                 (A) (A) (A) (A) (A) (A) (A) (A) (A) (A) (A) (A)
                 (A) (A) (A) (A) (A) (A) (A) (A) (A) (A) (A) (A)
                 (A) (A) (A) (A) (A) (A) (A) (A) (A) (A) (A) (A)
                 (A) (A) (A) (A) (A) (A) (A) (A) (A) (A) (A) (A)
                 (A) (A) (A) (A) (A) (A) (A) (A) (A) (A) (A) (A)
                 (A) (A) (A) (A) (A) (A) (A) (A) (A) (A) (A) (A)
                 (A) (A) (A) (A) (A) (A) (A) (A) (A) (A) (A) (A)
                 (A) (A)
 The electronic state is 1-A.
 Alpha  occ. eigenvalues -- -102.68279 -19.70378 -19.70373 -19.68383 -19.66271
 Alpha  occ. eigenvalues --  -19.65184 -14.76081 -10.71408 -10.66973 -10.64755
 Alpha  occ. eigenvalues --  -10.62657 -10.62151 -10.62035 -10.59846 -10.59025
 Alpha  occ. eigenvalues --  -10.58756 -10.58519 -10.57504 -10.57231 -10.54595
 Alpha  occ. eigenvalues --   -9.82961  -7.55363  -7.54702  -7.54692  -1.24718
 Alpha  occ. eigenvalues --   -1.24441  -1.19680  -1.16318  -1.15217  -1.04049
 Alpha  occ. eigenvalues --   -1.00772  -0.95258  -0.91762  -0.88234  -0.86766
 Alpha  occ. eigenvalues --   -0.83594  -0.80716  -0.77607  -0.73852  -0.71502
 Alpha  occ. eigenvalues --   -0.70222  -0.68617  -0.67094  -0.63835  -0.61276
 Alpha  occ. eigenvalues --   -0.59980  -0.59149  -0.58626  -0.57622  -0.55912
 Alpha  occ. eigenvalues --   -0.55048  -0.54790  -0.53747  -0.52986  -0.52258
 Alpha  occ. eigenvalues --   -0.50901  -0.50805  -0.49220  -0.48401  -0.47820
 Alpha  occ. eigenvalues --   -0.46786  -0.46290  -0.46156  -0.45759  -0.45254
 Alpha  occ. eigenvalues --   -0.44541  -0.43015  -0.41708  -0.41197  -0.40881
 Alpha  occ. eigenvalues --   -0.39161  -0.38844  -0.37213  -0.36761  -0.35461
 Alpha  occ. eigenvalues --   -0.34319  -0.30907  -0.28587
 Alpha virt. eigenvalues --   -0.03287   0.00617   0.00799   0.01710   0.01781
 Alpha virt. eigenvalues --    0.02305   0.02896   0.03320   0.03761   0.04168
 Alpha virt. eigenvalues --    0.04582   0.04790   0.05436   0.05909   0.06223
 Alpha virt. eigenvalues --    0.06672   0.06940   0.07192   0.07889   0.08165
 Alpha virt. eigenvalues --    0.08242   0.08728   0.09032   0.09667   0.10331
 Alpha virt. eigenvalues --    0.10694   0.11268   0.11757   0.11920   0.12280
 Alpha virt. eigenvalues --    0.12887   0.13192   0.14001   0.14484   0.14683
 Alpha virt. eigenvalues --    0.15016   0.15307   0.15670   0.16235   0.16527
 Alpha virt. eigenvalues --    0.16788   0.17608   0.17852   0.18086   0.18642
 Alpha virt. eigenvalues --    0.18879   0.19384   0.19668   0.20100   0.20266
 Alpha virt. eigenvalues --    0.20657   0.20998   0.21361   0.21671   0.22296
 Alpha virt. eigenvalues --    0.22509   0.22745   0.23098   0.23799   0.24148
 Alpha virt. eigenvalues --    0.24717   0.25072   0.25229   0.25519   0.25891
 Alpha virt. eigenvalues --    0.26011   0.26786   0.26846   0.27383   0.27735
 Alpha virt. eigenvalues --    0.28153   0.28312   0.28926   0.29314   0.29601
 Alpha virt. eigenvalues --    0.29909   0.30207   0.30441   0.31080   0.31173
 Alpha virt. eigenvalues --    0.31514   0.32001   0.32238   0.32831   0.33298
 Alpha virt. eigenvalues --    0.33553   0.33735   0.34208   0.34832   0.35454
 Alpha virt. eigenvalues --    0.35953   0.37039   0.37264   0.37889   0.38476
 Alpha virt. eigenvalues --    0.39219   0.39443   0.39920   0.40548   0.41243
 Alpha virt. eigenvalues --    0.41834   0.42337   0.43230   0.43718   0.44001
 Alpha virt. eigenvalues --    0.45061   0.45593   0.46590   0.48199   0.48284
 Alpha virt. eigenvalues --    0.49281   0.49808   0.51582   0.54291   0.56345
 Alpha virt. eigenvalues --    0.56631   0.59482   0.61759   0.64480   0.66890
 Alpha virt. eigenvalues --    0.67261   0.68189   0.69222   0.70799   0.71381
 Alpha virt. eigenvalues --    0.72106   0.72859   0.74021   0.74564   0.75268
 Alpha virt. eigenvalues --    0.75421   0.76064   0.77116   0.78069   0.78935
 Alpha virt. eigenvalues --    0.79645   0.80672   0.81271   0.81535   0.82277
 Alpha virt. eigenvalues --    0.83720   0.83828   0.85260   0.86145   0.86952
 Alpha virt. eigenvalues --    0.87758   0.90399   0.90665   0.92295   0.92475
 Alpha virt. eigenvalues --    0.93332   0.94813   0.96365   0.97701   0.98329
 Alpha virt. eigenvalues --    0.98897   1.00770   1.02123   1.02642   1.04245
 Alpha virt. eigenvalues --    1.04440   1.05422   1.06001   1.06742   1.08300
 Alpha virt. eigenvalues --    1.09337   1.10632   1.11441   1.12745   1.12933
 Alpha virt. eigenvalues --    1.14205   1.14488   1.15322   1.16464   1.16816
 Alpha virt. eigenvalues --    1.18212   1.18749   1.19699   1.21221   1.22293
 Alpha virt. eigenvalues --    1.23865   1.24727   1.25437   1.25862   1.26313
 Alpha virt. eigenvalues --    1.27239   1.28362   1.28968   1.29377   1.29779
 Alpha virt. eigenvalues --    1.32047   1.32624   1.34833   1.36382   1.37045
 Alpha virt. eigenvalues --    1.37633   1.38691   1.39189   1.40125   1.40421
 Alpha virt. eigenvalues --    1.40720   1.41371   1.42478   1.43281   1.43483
 Alpha virt. eigenvalues --    1.44458   1.44507   1.45069   1.46116   1.47570
 Alpha virt. eigenvalues --    1.49373   1.50543   1.52933   1.53124   1.55004
 Alpha virt. eigenvalues --    1.56388   1.57254   1.57865   1.58389   1.60302
 Alpha virt. eigenvalues --    1.62522   1.64469   1.65934   1.66103   1.67342
 Alpha virt. eigenvalues --    1.71063   1.72160   1.73848   1.74654   1.75412
 Alpha virt. eigenvalues --    1.77924   1.78253   1.78900   1.80495   1.81417
 Alpha virt. eigenvalues --    1.82374   1.82732   1.84204   1.86113   1.88771
 Alpha virt. eigenvalues --    1.90075   1.91296   1.93088   1.95084   1.95230
 Alpha virt. eigenvalues --    1.95777   1.96275   1.96824   1.98196   1.98774
 Alpha virt. eigenvalues --    1.99988   2.01596   2.02228   2.03326   2.04419
 Alpha virt. eigenvalues --    2.05945   2.06826   2.08459   2.09652   2.10794
 Alpha virt. eigenvalues --    2.10888   2.11648   2.13509   2.14466   2.16158
 Alpha virt. eigenvalues --    2.18608   2.19512   2.20096   2.21883   2.23440
 Alpha virt. eigenvalues --    2.24854   2.25985   2.26622   2.28714   2.29158
 Alpha virt. eigenvalues --    2.32960   2.34183   2.36639   2.37429   2.39226
 Alpha virt. eigenvalues --    2.40792   2.41274   2.42571   2.43731   2.44987
 Alpha virt. eigenvalues --    2.46629   2.47019   2.48129   2.49169   2.49921
 Alpha virt. eigenvalues --    2.51675   2.51766   2.54647   2.55115   2.56006
 Alpha virt. eigenvalues --    2.57146   2.57623   2.58067   2.59425   2.60994
 Alpha virt. eigenvalues --    2.62074   2.62312   2.64174   2.67184   2.67427
 Alpha virt. eigenvalues --    2.69233   2.69647   2.70520   2.71092   2.72015
 Alpha virt. eigenvalues --    2.73841   2.74457   2.75629   2.76013   2.77057
 Alpha virt. eigenvalues --    2.79968   2.81209   2.81586   2.82966   2.84463
 Alpha virt. eigenvalues --    2.87912   2.88632   2.90456   2.92565   2.93827
 Alpha virt. eigenvalues --    2.94465   3.00337   3.00951   3.02860   3.04092
 Alpha virt. eigenvalues --    3.04397   3.07371   3.09796   3.11389   3.14158
 Alpha virt. eigenvalues --    3.15096   3.19459   3.23036   3.25829   3.26953
 Alpha virt. eigenvalues --    3.32540   3.35655   3.38778   3.40351   3.42105
 Alpha virt. eigenvalues --    3.47762   3.48147   3.50271   3.51223   3.54381
 Alpha virt. eigenvalues --    3.56635   3.64453   3.65159   3.76278   4.26797
 Alpha virt. eigenvalues --    4.28700   4.30627   4.32255   4.35183   4.37820
 Alpha virt. eigenvalues --    4.40758   4.44087   4.44680   4.46597   4.51133
 Alpha virt. eigenvalues --    4.53325   4.57976   4.64185   4.69280   4.70452
 Alpha virt. eigenvalues --    4.75079   4.79490   4.88286   4.97245
          Condensed to atoms (all electrons):
              1          2          3          4          5          6
     1  O    8.429931   0.387117   0.136590  -0.054051   0.001279   0.003042
     2  C    0.387117  13.915787  -1.640412  -1.987996  -0.120266   0.259948
     3  C    0.136590  -1.640412  10.258138   0.501499  -0.276289   0.206048
     4  C   -0.054051  -1.987996   0.501499   7.106799   0.698631  -0.578467
     5  N    0.001279  -0.120266  -0.276289   0.698631   7.256014  -0.406582
     6  C    0.003042   0.259948   0.206048  -0.578467  -0.406582   9.609389
     7  C   -0.000465  -0.009328  -0.073359  -0.366386  -0.198325  -0.550303
     8  O    0.000008   0.000923   0.002046   0.058488   0.001974  -0.244966
     9  C    0.000005  -0.004148  -0.038886  -0.032436  -0.023680  -0.172020
    10  C   -0.000071   0.015751   0.020936   0.020301   0.065931  -0.073506
    11  O    0.000000   0.000356   0.002062   0.011877   0.002681  -0.021483
    12  O   -0.000001  -0.000270  -0.001097   0.002629  -0.001621  -0.008219
    13  C   -0.022052  -0.175014  -0.140028  -0.268988   0.175263  -1.751526
    14  C    0.005265  -0.016734   0.068939  -0.033198   0.012271   0.054172
    15  O    0.015463  -0.231239  -0.089153   0.207610  -0.148387  -0.124466
    16  C    0.126515   0.306921   0.208659  -0.523900   0.139769  -0.369047
    17  C   -0.003804  -2.508923  -1.340555   0.551747   0.084710  -0.159258
    18  Cl  -0.000327  -0.011042  -0.021039   0.008927  -0.001043   0.000241
    19  C    0.043096   0.397468  -0.294361  -0.282428  -0.007837  -0.060224
    20  C   -0.697561  -1.828130  -1.596049   0.331764  -0.009335   0.123210
    21  H    0.203595   0.071670  -0.159268   0.006444   0.001526  -0.003128
    22  H    0.000029  -0.007295  -0.011149   0.033211  -0.012170   0.337707
    23  H    0.000003  -0.001707  -0.005286   0.044349   0.031678  -0.012437
    24  H    0.000000  -0.000037  -0.000686   0.013303   0.004959  -0.003342
    25  H    0.000000  -0.000016   0.000239  -0.002629   0.001413  -0.000864
    26  H   -0.000001  -0.000230  -0.009221   0.015037   0.005322  -0.032131
    27  H    0.000000  -0.000016  -0.000149  -0.000251   0.000115  -0.002709
    28  H    0.000006   0.008042  -0.000756   0.023714   0.005105  -0.028473
    29  H    0.000038   0.000188  -0.001904   0.002061   0.007838  -0.001287
    30  H   -0.000018  -0.003925   0.003989   0.001120  -0.003358   0.056872
    31  H    0.000001   0.002283  -0.000560  -0.009232  -0.008860   0.023816
    32  H   -0.000490   0.033874   0.027047   0.014715  -0.000209  -0.005591
    33  H   -0.000381  -0.007555   0.014858   0.001467   0.000036   0.000052
    34  H   -0.003437   0.011623   0.003282  -0.003938   0.000004  -0.000074
              7          8          9         10         11         12
     1  O   -0.000465   0.000008   0.000005  -0.000071   0.000000  -0.000001
     2  C   -0.009328   0.000923  -0.004148   0.015751   0.000356  -0.000270
     3  C   -0.073359   0.002046  -0.038886   0.020936   0.002062  -0.001097
     4  C   -0.366386   0.058488  -0.032436   0.020301   0.011877   0.002629
     5  N   -0.198325   0.001974  -0.023680   0.065931   0.002681  -0.001621
     6  C   -0.550303  -0.244966  -0.172020  -0.073506  -0.021483  -0.008219
     7  C    7.624287   0.241045  -0.224132  -0.275289   0.089045   0.059597
     8  O    0.241045   8.249506  -0.018906  -0.010851  -0.002231   0.002182
     9  C   -0.224132  -0.018906   6.410768   0.034326  -0.224349  -0.191685
    10  C   -0.275289  -0.010851   0.034326   5.164577   0.242985   0.488202
    11  O    0.089045  -0.002231  -0.224349   0.242985   8.250564  -0.130232
    12  O    0.059597   0.002182  -0.191685   0.488202  -0.130232   8.223491
    13  C   -0.222270   0.067226   0.188991  -0.184293  -0.001586   0.013493
    14  C   -0.274924  -0.050625  -0.040786  -0.002592  -0.000243   0.005299
    15  O    0.075704   0.002655  -0.008175  -0.003413   0.000089  -0.000329
    16  C   -0.140051  -0.002859   0.021520   0.007698  -0.005767   0.000563
    17  C   -0.007530  -0.000335   0.011900  -0.004792  -0.000959   0.000349
    18  Cl   0.000525  -0.000003  -0.000228   0.000202  -0.000033   0.000003
    19  C   -0.020751   0.000066   0.002740   0.002302  -0.000101  -0.000037
    20  C    0.034948  -0.000085  -0.001998  -0.000225   0.000134   0.000071
    21  H    0.000542   0.000002  -0.000046  -0.000028   0.000000   0.000000
    22  H   -0.118092   0.001527  -0.007485   0.010214  -0.000172  -0.000675
    23  H    0.283721  -0.046613  -0.022778   0.023230  -0.000564   0.000764
    24  H    0.005728   0.273099  -0.039720   0.013969   0.000107   0.011817
    25  H    0.018784  -0.005962   0.337841  -0.008360   0.001105  -0.001406
    26  H   -0.087091   0.010399   0.442355  -0.043525   0.000545   0.008883
    27  H   -0.003413   0.000014   0.036765  -0.015243   0.249322   0.004084
    28  H   -0.000675  -0.001969   0.004085   0.001113   0.000000   0.000033
    29  H   -0.029166  -0.000384   0.013145   0.000949   0.000001  -0.000013
    30  H   -0.002413   0.000180  -0.001705   0.000098   0.000000   0.000000
    31  H    0.025180   0.000527  -0.002284  -0.000601   0.000001   0.000005
    32  H   -0.002899   0.000004   0.000745   0.000373  -0.000031  -0.000006
    33  H    0.000002   0.000000  -0.000001   0.000000   0.000000   0.000000
    34  H    0.000000   0.000000   0.000000   0.000000   0.000000   0.000000
             13         14         15         16         17         18
     1  O   -0.022052   0.005265   0.015463   0.126515  -0.003804  -0.000327
     2  C   -0.175014  -0.016734  -0.231239   0.306921  -2.508923  -0.011042
     3  C   -0.140028   0.068939  -0.089153   0.208659  -1.340555  -0.021039
     4  C   -0.268988  -0.033198   0.207610  -0.523900   0.551747   0.008927
     5  N    0.175263   0.012271  -0.148387   0.139769   0.084710  -0.001043
     6  C   -1.751526   0.054172  -0.124466  -0.369047  -0.159258   0.000241
     7  C   -0.222270  -0.274924   0.075704  -0.140051  -0.007530   0.000525
     8  O    0.067226  -0.050625   0.002655  -0.002859  -0.000335  -0.000003
     9  C    0.188991  -0.040786  -0.008175   0.021520   0.011900  -0.000228
    10  C   -0.184293  -0.002592  -0.003413   0.007698  -0.004792   0.000202
    11  O   -0.001586  -0.000243   0.000089  -0.005767  -0.000959  -0.000033
    12  O    0.013493   0.005299  -0.000329   0.000563   0.000349   0.000003
    13  C    8.512680  -0.242208  -0.029230   0.137543   0.081271   0.000678
    14  C   -0.242208   5.752180  -0.121999   0.042815   0.004160   0.000114
    15  O   -0.029230  -0.121999   8.715515   0.080120   0.015602  -0.000253
    16  C    0.137543   0.042815   0.080120   8.629569  -0.463259  -0.122476
    17  C    0.081271   0.004160   0.015602  -0.463259   9.236168  -0.052810
    18  Cl   0.000678   0.000114  -0.000253  -0.122476  -0.052810  17.019395
    19  C    0.011612   0.002763  -0.011105   0.050919  -0.239626  -0.109238
    20  C   -0.070739  -0.013339   0.060480  -1.892810   0.592516   0.067910
    21  H    0.013604  -0.007341   0.029687  -0.030364  -0.001572  -0.000006
    22  H    0.005307   0.020844   0.000213   0.022982   0.003425   0.000012
    23  H   -0.069837   0.036932  -0.002492   0.011690   0.001517   0.000006
    24  H   -0.026952   0.009449  -0.000090   0.000635   0.000037   0.000000
    25  H   -0.002561  -0.000151   0.000061   0.000279   0.000007   0.000002
    26  H    0.004529   0.002003  -0.000174   0.003728   0.001849  -0.000011
    27  H   -0.000127   0.000005   0.000000   0.000193   0.000057   0.000001
    28  H    0.371629  -0.037781  -0.041105  -0.001531  -0.000353   0.000000
    29  H   -0.049914   0.406255   0.002009   0.007601   0.000745   0.000004
    30  H   -0.084601   0.401821  -0.001980  -0.000064  -0.000011   0.000000
    31  H   -0.104553   0.426885   0.011414  -0.002921  -0.000199   0.000000
    32  H    0.005092   0.000587  -0.000046   0.351821  -0.113917   0.000564
    33  H   -0.000028  -0.000007   0.000003   0.020038   0.059660  -0.005224
    34  H    0.000171  -0.000009   0.000172   0.005796   0.000191   0.000856
             19         20         21         22         23         24
     1  O    0.043096  -0.697561   0.203595   0.000029   0.000003   0.000000
     2  C    0.397468  -1.828130   0.071670  -0.007295  -0.001707  -0.000037
     3  C   -0.294361  -1.596049  -0.159268  -0.011149  -0.005286  -0.000686
     4  C   -0.282428   0.331764   0.006444   0.033211   0.044349   0.013303
     5  N   -0.007837  -0.009335   0.001526  -0.012170   0.031678   0.004959
     6  C   -0.060224   0.123210  -0.003128   0.337707  -0.012437  -0.003342
     7  C   -0.020751   0.034948   0.000542  -0.118092   0.283721   0.005728
     8  O    0.000066  -0.000085   0.000002   0.001527  -0.046613   0.273099
     9  C    0.002740  -0.001998  -0.000046  -0.007485  -0.022778  -0.039720
    10  C    0.002302  -0.000225  -0.000028   0.010214   0.023230   0.013969
    11  O   -0.000101   0.000134   0.000000  -0.000172  -0.000564   0.000107
    12  O   -0.000037   0.000071   0.000000  -0.000675   0.000764   0.011817
    13  C    0.011612  -0.070739   0.013604   0.005307  -0.069837  -0.026952
    14  C    0.002763  -0.013339  -0.007341   0.020844   0.036932   0.009449
    15  O   -0.011105   0.060480   0.029687   0.000213  -0.002492  -0.000090
    16  C    0.050919  -1.892810  -0.030364   0.022982   0.011690   0.000635
    17  C   -0.239626   0.592516  -0.001572   0.003425   0.001517   0.000037
    18  Cl  -0.109238   0.067910  -0.000006   0.000012   0.000006   0.000000
    19  C    6.967947  -0.258721  -0.003087   0.000130   0.000155   0.000002
    20  C   -0.258721  10.332880   0.124168  -0.000635  -0.000207  -0.000001
    21  H   -0.003087   0.124168   0.294672  -0.000008   0.000000   0.000000
    22  H    0.000130  -0.000635  -0.000008   0.519150   0.003865   0.001904
    23  H    0.000155  -0.000207   0.000000   0.003865   0.559409   0.006219
    24  H    0.000002  -0.000001   0.000000   0.001904   0.006219   0.324954
    25  H   -0.000004   0.000002   0.000000  -0.000078  -0.004805  -0.000234
    26  H   -0.000016   0.000090   0.000000   0.000257  -0.001053  -0.000045
    27  H    0.000001  -0.000001   0.000000   0.000011   0.000003   0.000007
    28  H    0.000101   0.000679  -0.000047  -0.006640   0.000133   0.000215
    29  H    0.000221   0.000424   0.000011  -0.000051  -0.000583   0.000000
    30  H   -0.000076  -0.000522  -0.000026  -0.000088   0.000053   0.000001
    31  H   -0.000006   0.000148  -0.000002  -0.000090  -0.001912  -0.000144
    32  H    0.010375  -0.000313  -0.000004   0.000006   0.000002   0.000000
    33  H    0.248832  -0.002473   0.000002   0.000000   0.000000   0.000000
    34  H    0.002543   0.312582   0.000043   0.000000   0.000000   0.000000
             25         26         27         28         29         30
     1  O    0.000000  -0.000001   0.000000   0.000006   0.000038  -0.000018
     2  C   -0.000016  -0.000230  -0.000016   0.008042   0.000188  -0.003925
     3  C    0.000239  -0.009221  -0.000149  -0.000756  -0.001904   0.003989
     4  C   -0.002629   0.015037  -0.000251   0.023714   0.002061   0.001120
     5  N    0.001413   0.005322   0.000115   0.005105   0.007838  -0.003358
     6  C   -0.000864  -0.032131  -0.002709  -0.028473  -0.001287   0.056872
     7  C    0.018784  -0.087091  -0.003413  -0.000675  -0.029166  -0.002413
     8  O   -0.005962   0.010399   0.000014  -0.001969  -0.000384   0.000180
     9  C    0.337841   0.442355   0.036765   0.004085   0.013145  -0.001705
    10  C   -0.008360  -0.043525  -0.015243   0.001113   0.000949   0.000098
    11  O    0.001105   0.000545   0.249322   0.000000   0.000001   0.000000
    12  O   -0.001406   0.008883   0.004084   0.000033  -0.000013   0.000000
    13  C   -0.002561   0.004529  -0.000127   0.371629  -0.049914  -0.084601
    14  C   -0.000151   0.002003   0.000005  -0.037781   0.406255   0.401821
    15  O    0.000061  -0.000174   0.000000  -0.041105   0.002009  -0.001980
    16  C    0.000279   0.003728   0.000193  -0.001531   0.007601  -0.000064
    17  C    0.000007   0.001849   0.000057  -0.000353   0.000745  -0.000011
    18  Cl   0.000002  -0.000011   0.000001   0.000000   0.000004   0.000000
    19  C   -0.000004  -0.000016   0.000001   0.000101   0.000221  -0.000076
    20  C    0.000002   0.000090  -0.000001   0.000679   0.000424  -0.000522
    21  H    0.000000   0.000000   0.000000  -0.000047   0.000011  -0.000026
    22  H   -0.000078   0.000257   0.000011  -0.006640  -0.000051  -0.000088
    23  H   -0.004805  -0.001053   0.000003   0.000133  -0.000583   0.000053
    24  H   -0.000234  -0.000045   0.000007   0.000215   0.000000   0.000001
    25  H    0.460382  -0.020089  -0.000229   0.000001   0.000004   0.000000
    26  H   -0.020089   0.485440   0.000004   0.000002   0.000005   0.000000
    27  H   -0.000229   0.000004   0.301474   0.000000   0.000000   0.000000
    28  H    0.000001   0.000002   0.000000   0.511549   0.003591  -0.003717
    29  H    0.000004   0.000005   0.000000   0.003591   0.513341  -0.026192
    30  H    0.000000   0.000000   0.000000  -0.003717  -0.026192   0.508354
    31  H    0.000000  -0.000001   0.000000  -0.000930  -0.025258  -0.022303
    32  H    0.000000   0.000012   0.000000   0.000000   0.000001   0.000000
    33  H    0.000000   0.000000   0.000000   0.000000   0.000000   0.000000
    34  H    0.000000   0.000000   0.000000   0.000000   0.000000   0.000000
             31         32         33         34
     1  O    0.000001  -0.000490  -0.000381  -0.003437
     2  C    0.002283   0.033874  -0.007555   0.011623
     3  C   -0.000560   0.027047   0.014858   0.003282
     4  C   -0.009232   0.014715   0.001467  -0.003938
     5  N   -0.008860  -0.000209   0.000036   0.000004
     6  C    0.023816  -0.005591   0.000052  -0.000074
     7  C    0.025180  -0.002899   0.000002   0.000000
     8  O    0.000527   0.000004   0.000000   0.000000
     9  C   -0.002284   0.000745  -0.000001   0.000000
    10  C   -0.000601   0.000373   0.000000   0.000000
    11  O    0.000001  -0.000031   0.000000   0.000000
    12  O    0.000005  -0.000006   0.000000   0.000000
    13  C   -0.104553   0.005092  -0.000028   0.000171
    14  C    0.426885   0.000587  -0.000007  -0.000009
    15  O    0.011414  -0.000046   0.000003   0.000172
    16  C   -0.002921   0.351821   0.020038   0.005796
    17  C   -0.000199  -0.113917   0.059660   0.000191
    18  Cl   0.000000   0.000564  -0.005224   0.000856
    19  C   -0.000006   0.010375   0.248832   0.002543
    20  C    0.000148  -0.000313  -0.002473   0.312582
    21  H   -0.000002  -0.000004   0.000002   0.000043
    22  H   -0.000090   0.000006   0.000000   0.000000
    23  H   -0.001912   0.000002   0.000000   0.000000
    24  H   -0.000144   0.000000   0.000000   0.000000
    25  H    0.000000   0.000000   0.000000   0.000000
    26  H   -0.000001   0.000012   0.000000   0.000000
    27  H    0.000000   0.000000   0.000000   0.000000
    28  H   -0.000930   0.000000   0.000000   0.000000
    29  H   -0.025258   0.000001   0.000000   0.000000
    30  H   -0.022303   0.000000   0.000000   0.000000
    31  H    0.498135   0.000000   0.000000   0.000000
    32  H    0.000000   0.462921  -0.000128   0.000007
    33  H    0.000000  -0.000128   0.468131  -0.003615
    34  H    0.000000   0.000007  -0.003615   0.472140
 Mulliken atomic charges:
              1
     1  O   -0.569325
     2  C   -0.857667
     3  C    0.245877
     4  C    0.488209
     5  N   -0.278557
     6  C   -0.064397
     7  C    0.147752
     8  O   -0.526083
     9  C   -0.449738
    10  C    0.509631
    11  O   -0.463120
    12  O   -0.485873
    13  C   -0.142581
    14  C   -0.410823
    15  O   -0.403162
    16  C   -0.622325
    17  C    0.251993
    18  Cl   0.224293
    19  C   -0.453656
    20  C    0.391138
    21  H    0.458961
    22  H    0.203831
    23  H    0.166544
    24  H    0.404845
    25  H    0.227268
    26  H    0.213129
    27  H    0.430082
    28  H    0.193977
    29  H    0.176321
    30  H    0.178510
    31  H    0.191463
    32  H    0.215489
    33  H    0.206331
    34  H    0.201662
 Sum of Mulliken atomic charges =   0.00000
 Mulliken charges with hydrogens summed into heavy atoms:
              1
     1  O   -0.110364
     2  C   -0.857667
     3  C    0.245877
     4  C    0.488209
     5  N   -0.278557
     6  C    0.139434
     7  C    0.314296
     8  O   -0.121237
     9  C   -0.009340
    10  C    0.509631
    11  O   -0.033038
    12  O   -0.485873
    13  C    0.051396
    14  C    0.135471
    15  O   -0.403162
    16  C   -0.406836
    17  C    0.251993
    18  Cl   0.224293
    19  C   -0.247325
    20  C    0.592800
 Sum of Mulliken charges with hydrogens summed into heavy atoms =   0.00000
 Electronic spatial extent (au):  <R**2>=           7676.0682
 Charge=              0.0000 electrons
 Dipole moment (field-independent basis, Debye):
    X=              0.9714    Y=             -0.2750    Z=              0.0527  Tot=              1.0109
 Quadrupole moment (field-independent basis, Debye-Ang):
   XX=           -125.3605   YY=           -118.3958   ZZ=           -125.0721
   XY=              7.6014   XZ=             -0.0846   YZ=             -2.1869
 Traceless Quadrupole moment (field-independent basis, Debye-Ang):
   XX=             -2.4177   YY=              4.5470   ZZ=             -2.1293
   XY=              7.6014   XZ=             -0.0846   YZ=             -2.1869
 Octapole moment (field-independent basis, Debye-Ang**2):
  XXX=            -65.4194  YYY=             30.6594  ZZZ=              1.4218  XYY=             73.8024
  XXY=             24.3735  XXZ=             -9.2438  XZZ=             21.7872  YZZ=              6.2875
  YYZ=            -23.7899  XYZ=              2.0461
 Hexadecapole moment (field-independent basis, Debye-Ang**3):
 XXXX=          -6590.3098 YYYY=          -2594.7800 ZZZZ=           -421.6871 XXXY=            270.4299
 XXXZ=            -27.0084 YYYX=            110.0087 YYYZ=           -110.9573 ZZZX=              4.2609
 ZZZY=             -2.2025 XXYY=          -1565.8934 XXZZ=          -1264.5286 YYZZ=           -501.2769
 XXYZ=              8.4698 YYXZ=            -97.6269 ZZXY=             20.6112
 N-N= 1.676652935090D+03 E-N=-6.626020944018D+03  KE= 1.385281488695D+03
 D1PCM: PCM CHGder 1st derivatives, ID1Alg=3 FixD1E=F DoIter=F DoCFld=F I1PDM=0.
 Calling FoFJK, ICntrl=      2127 FMM=F ISym2X=0 I1Cent= 0 IOpClX= 0 NMat=1 NMatS=1 NMatT=0.
 ***** Axes restored to original set *****
 -------------------------------------------------------------------
 Center     Atomic                   Forces (Hartrees/Bohr)
 Number     Number              X              Y              Z
 -------------------------------------------------------------------
      1        8          -0.016537969    0.008899697    0.028311258
      2        6           0.005223244   -0.001992929   -0.004849179
      3        6          -0.011621625    0.000909409   -0.003092045
      4        6           0.009369042   -0.004201835    0.003691369
      5        7           0.006694250    0.005111213    0.025224652
      6        6           0.014589849   -0.008368330   -0.001753756
      7        6           0.008826529    0.012700564   -0.002141935
      8        8          -0.014277323   -0.019381911    0.002538372
      9        6          -0.012268254    0.013568479    0.002447867
     10        6           0.001714384   -0.001385080   -0.009601337
     11        8          -0.026740924   -0.035959192   -0.016810290
     12        8          -0.001280445   -0.010517315    0.025982130
     13        6           0.014024623   -0.027290833   -0.009595015
     14        6           0.004520656    0.004933418    0.000150826
     15        8          -0.039485076    0.017551824    0.008703555
     16        6          -0.015310524    0.002881222    0.002781334
     17        6          -0.003567580   -0.006317098   -0.028396329
     18       17           0.003145582    0.001336020    0.007548348
     19        6           0.006896424   -0.004727849   -0.016221324
     20        6           0.016290092    0.000269328    0.009714740
     21        1           0.017527134   -0.005686727   -0.013404261
     22        1           0.006973712    0.003126884   -0.000193831
     23        1          -0.001274663   -0.003112091   -0.000409972
     24        1           0.011187915    0.018935016   -0.005506526
     25        1           0.003533491   -0.002030556   -0.003370422
     26        1          -0.000753575    0.001459543    0.002556179
     27        1           0.017631681    0.032085054   -0.004963032
     28        1          -0.004174043    0.002477885    0.000131068
     29        1          -0.000163774    0.000533146    0.004006811
     30        1          -0.002390253    0.003038766   -0.000766188
     31        1           0.003531751    0.001339133   -0.000435041
     32        1           0.004291147   -0.001013064   -0.002433511
     33        1          -0.003105233    0.001072453    0.002818118
     34        1          -0.003020243   -0.000244244   -0.002662630
 -------------------------------------------------------------------
 Cartesian Forces:  Max     0.039485076 RMS     0.011856974

 GradGradGradGradGradGradGradGradGradGradGradGradGradGradGradGradGradGrad
 Berny optimization.
 Internal  Forces:  Max     0.036931225 RMS     0.007200335
 Search for a local minimum.
 Step number   1 out of a maximum of  192
 All quantities printed in internal units (Hartrees-Bohrs-Radians)
 Mixed Optimization -- RFO/linear search
 Second derivative matrix not updated -- first step.
 ITU=  0
     Eigenvalues ---    0.00230   0.00230   0.00241   0.00333   0.00687
     Eigenvalues ---    0.00818   0.00907   0.01451   0.01553   0.01698
     Eigenvalues ---    0.01843   0.01917   0.01944   0.01963   0.01980
     Eigenvalues ---    0.01999   0.02001   0.02005   0.02119   0.02238
     Eigenvalues ---    0.02408   0.03586   0.03716   0.03815   0.03969
     Eigenvalues ---    0.04273   0.04654   0.05186   0.05338   0.05460
     Eigenvalues ---    0.05543   0.05735   0.07637   0.08102   0.08308
     Eigenvalues ---    0.09839   0.13156   0.13566   0.16000   0.16000
     Eigenvalues ---    0.16000   0.16000   0.16000   0.16000   0.16000
     Eigenvalues ---    0.16000   0.16490   0.16737   0.17537   0.19375
     Eigenvalues ---    0.20153   0.21977   0.22439   0.23514   0.23778
     Eigenvalues ---    0.24601   0.24986   0.24999   0.25000   0.25000
     Eigenvalues ---    0.25000   0.27093   0.27220   0.27460   0.28545
     Eigenvalues ---    0.29176   0.33043   0.33267   0.34628   0.34719
     Eigenvalues ---    0.34725   0.34784   0.34792   0.34797   0.34809
     Eigenvalues ---    0.34828   0.35935   0.35937   0.35982   0.38043
     Eigenvalues ---    0.38686   0.40298   0.41919   0.42730   0.42953
     Eigenvalues ---    0.43860   0.44306   0.44549   0.48468   0.51342
     Eigenvalues ---    0.53203   0.56896   0.57626   0.58929   0.72297
     Eigenvalues ---    0.91505
 RFO step:  Lambda=-2.43599054D-02 EMin= 2.30000000D-03
 Linear search not attempted -- first point.
 Iteration  1 RMS(Cart)=  0.06381237 RMS(Int)=  0.00083782
 Iteration  2 RMS(Cart)=  0.00182195 RMS(Int)=  0.00020957
 Iteration  3 RMS(Cart)=  0.00000139 RMS(Int)=  0.00020957
 Iteration  4 RMS(Cart)=  0.00000000 RMS(Int)=  0.00020957
 Variable       Old X    -DE/DX   Delta X   Delta X   Delta X     New X
                                 (Linear)    (Quad)   (Total)
    R1        2.58460  -0.01345   0.00000  -0.02539  -0.02541   2.55919
    R2        1.79585   0.01968   0.00000   0.03388   0.03392   1.82978
    R3        2.68949  -0.00937   0.00000  -0.02317  -0.02325   2.66624
    R4        2.66320  -0.01294   0.00000  -0.02781  -0.02782   2.63538
    R5        2.81451  -0.01233   0.00000  -0.03607  -0.03611   2.77839
    R6        2.67418  -0.01629   0.00000  -0.03594  -0.03595   2.63823
    R7        2.39191   0.01145   0.00000   0.01542   0.01571   2.40763
    R8        2.58295  -0.00206   0.00000  -0.00296  -0.00273   2.58021
    R9        2.71586   0.01473   0.00000   0.03546   0.03548   2.75133
   R10        2.93876  -0.01545   0.00000  -0.05209  -0.05209   2.88667
   R11        2.91872   0.00645   0.00000   0.01891   0.01858   2.93730
   R12        2.06283   0.00555   0.00000   0.01499   0.01499   2.07782
[...]
 01011,0.00001003,0.00004598,0.00000871,0.00000369,-0.00002433,0.000063
 19,-0.00006325,0.00002234,0.00008295,0.00020605,-0.00001817,-0.0004096
 4,0.00045937,-0.00013533,0.00006489,-0.00004921,0.00001327,-0.00001805
 ,-0.00000999,-0.00002754,-0.00000180,0.00000016,-0.00001014,-0.0000018
 6,-0.00000370,0.00000527,-0.00107488,-0.00561890,-0.00234473,0.0251182
 0,0.11486379,-0.00002645,-0.00002502,-0.00001065,0.00002420,0.00003079
 ,0.00005514,-0.00003836,0.00012649,0.00006081,-0.00002482,-0.00004192,
 -0.00012111,-0.00001866,-0.00019057,0.00023130,-0.00046084,0.00057002,
 -0.00005414,-0.00028620,0.00076746,-0.00074863,0.00017134,-0.00002115,
 0.00032515,0.00002209,-0.00025088,0.00014875,0.00000214,0.00008909,-0.
 00013047,-0.00005316,-0.00006760,-0.00000100,0.00001567,-0.00003838,0.
 00005446,-0.00025712,-0.00355573,0.00585818,0.04053409,0.10936216,-0.2
 5343111,-0.00061386,0.00091727,0.00130007,-0.00001665,0.00000308,-0.00
 000888,-0.00002925,0.00000111,0.00000208,0.00000164,0.00000281,0.00000
 773,0.00000874,-0.00000031,0.00001836,0.00000253,0.00000232,-0.0000129
 9,0.00002314,0.00007468,-0.00001837,0.00017444,0.00011897,0.00013362,-
 0.00077899,-0.00058290,0.00019171,-0.00002796,0.00000949,0.00006932,0.
 00001440,0.00000405,0.00001084,-0.00000685,0.00000693,-0.00000380,-0.0
 0000140,0.00000172,-0.00000859,-0.00012926,-0.00174412,0.00080081,-0.0
 4287973,-0.11951435,0.27136333,0.00006253,-0.00001923,0.00000425,-0.00
 002523,0.00000257,-0.00003682,0.00002775,0.00002091,-0.00004515,-0.000
 03146,0.00019984,0.00000331,0.00021893,-0.00024111,-0.00003134,0.00066
 598,-0.00054177,0.00112064,0.00043242,0.00012206,0.00043788,-0.0006610
 9,-0.00039049,-0.00018532,-0.00002719,-0.00004247,0.00006781,0.0001241
 5,0.00015517,0.00007583,-0.00010793,-0.00011647,-0.00008003,-0.0001153
 3,-0.00009331,-0.00004960,-0.00635122,0.00123509,-0.00277520,-0.230212
 16,-0.01876921,-0.13056648,0.00153899,-0.00014157,0.00029501,0.0000241
 4,-0.00001102,0.00001570,0.00003557,0.00000243,0.00001814,-0.00000415,
 -0.00000430,-0.00002381,-0.00000145,-0.00000673,-0.00003030,-0.0000000
 5,-0.00000364,0.00001191,-0.00007925,-0.00004178,-0.00005598,-0.000254
 04,-0.00007872,-0.00035829,-0.00000164,-0.00018227,0.00017869,0.000062
 52,0.00009357,-0.00018811,-0.00002836,-0.00000867,-0.00001273,-0.00001
 749,-0.00001194,-0.00001343,0.00001665,0.00001913,-0.00000535,0.000255
 61,-0.00019595,0.00016924,0.00579202,0.00114658,0.00452075,0.24581576,
 0.00005538,0.00000402,0.00008100,-0.00003698,-0.00003803,-0.00014916,0
 .00008590,-0.00001203,0.00005738,-0.00084991,0.00039184,-0.00085220,0.
 00040462,-0.00011270,-0.00072247,0.00059076,-0.00567225,0.00140359,0.0
 0081387,-0.00124544,0.00049703,0.00006041,0.00037020,0.00017175,-0.000
 04596,0.00034324,-0.00009533,0.00012226,-0.00002988,0.00022810,-0.0000
 0133,0.00000807,-0.00005130,-0.00015150,0.00004809,-0.00006853,-0.0294
 0133,-0.00488848,-0.02201190,-0.01622792,-0.04740295,-0.01136613,0.000
 16184,0.00229969,0.00250787,0.00000624,-0.00000708,0.00000177,0.000040
 17,0.00000757,0.00002719,-0.00000383,-0.00000305,-0.00001474,-0.000001
 45,-0.00000925,-0.00003413,0.00000187,0.00000907,0.00002535,0.00010492
 ,-0.00007730,-0.00009184,-0.00101245,-0.00036010,-0.00119946,0.0002063
 8,0.00056633,-0.00013728,0.00007866,-0.00005237,0.00001064,-0.00005857
 ,-0.00001239,-0.00005391,0.00001711,-0.00001188,0.00001870,0.00001065,
 0.00001174,0.00000824,0.00037506,0.00142400,0.00046941,0.01303949,0.00
 081171,0.00742862,0.02093249,0.05269307,0.00000271,0.00004108,0.000078
 71,-0.00004765,-0.00004817,-0.00015768,0.00004531,-0.00003404,0.000063
 72,-0.00058122,0.00029640,-0.00079362,0.00047721,-0.00013704,0.0004458
 0,-0.00033914,-0.00048297,0.00133975,0.00023850,0.00009810,-0.00063892
 ,0.00029278,0.00018298,0.00032466,-0.00008673,-0.00010379,0.00012894,0
 .00004060,0.00009090,-0.00004407,-0.00005348,-0.00006712,-0.00002095,-
 0.00004018,-0.00001485,0.00002677,-0.00262620,-0.00084806,-0.00364181,
 -0.13040766,-0.01200772,-0.14032023,0.00016929,0.00072861,0.00078234,-
 0.00000218,-0.00000424,0.00000204,0.00000770,0.00000441,0.00000211,0.0
 0000195,0.00000119,0.00000823,-0.00000408,-0.00000614,-0.00000843,0.00
 000244,0.00001829,0.00002434,0.00018334,-0.00020990,-0.00007904,-0.000
 16336,-0.00007503,-0.00029867,0.00008954,-0.00032856,0.00008082,0.0000
 3951,-0.00000781,0.00010496,-0.00001273,-0.00000249,-0.00001516,0.0000
 0867,0.00000581,0.00001020,0.00000422,0.00000633,-0.00000585,0.0006050
 8,-0.00023954,0.00044309,-0.02265270,-0.00324815,-0.01463679,0.1422451
 7,0.01383455,0.14688480,0.00001802,0.00001406,0.00001175,-0.00001377,-
 0.00000581,-0.00003402,-0.00003856,0.00011244,-0.00010341,0.00048304,-
 0.00020469,0.00010881,-0.00020102,0.00007478,0.00019050,0.00020904,0.0
 0027673,-0.00014083,-0.00025831,-0.00029762,-0.00124837,-0.00176060,-0
 .00047511,-0.00034137,-0.00003787,0.00006488,0.00015677,-0.00009688,-0
 .00009410,-0.00007710,0.00006612,0.00005865,0.00005338,0.00006837,0.00
 009040,0.00005334,0.00501080,-0.00165327,-0.00359972,-0.21344961,0.095
 05340,0.10106942,0.00141060,-0.00259261,-0.00137280,0.00001988,0.00000
 219,-0.00000138,0.00000587,-0.00001468,-0.00000212,0.00000002,-0.00000
 139,-0.00000509,-0.00000592,0.00000166,-0.00000938,-0.00000242,-0.0000
 0502,0.00001555,0.00003045,-0.00010030,-0.00003918,0.00003256,0.000018
 42,0.00016511,-0.00013522,-0.00013611,-0.00032220,-0.00022531,-0.00009
 989,0.00023758,-0.00000334,0.00000671,-0.00000617,0.00003324,0.0000187
 5,0.00005188,-0.00000691,-0.00000908,-0.00000072,0.00026188,0.00044305
 ,0.00029073,-0.00292507,0.00110147,0.00014026,-0.01716045,0.01067092,0
 .01255829,0.22867051,0.00015685,0.00002081,-0.00003573,-0.00006792,-0.
 00000801,0.00000047,-0.00010967,0.00007645,-0.00046202,0.00204381,-0.0
 0071529,0.00344662,-0.00119460,0.00073464,-0.00029122,0.00030026,0.000
 30746,0.00000975,-0.00010762,-0.00015736,-0.00150329,0.00057070,0.0003
 4345,0.00072309,-0.00005155,0.00013567,0.00006942,-0.00004841,-0.00010
 120,-0.00007842,0.00008318,0.00007397,0.00006433,0.00005568,0.00012167
 ,0.00008910,0.02479650,-0.00735558,-0.01324013,0.09193619,-0.10120860,
 -0.05511086,0.00089725,-0.00871045,-0.00581409,0.00010592,0.00005905,0
 .00006426,0.00009917,-0.00003430,0.00000643,-0.00001171,-0.00001742,-0
 .00006264,-0.00003726,-0.00000594,-0.00007155,-0.00000329,-0.00000715,
 0.00003224,-0.00039251,-0.00006952,-0.00001462,-0.00007174,-0.00001036
 ,0.00023666,-0.00024830,0.00003782,-0.00010513,-0.00008004,-0.00017899
 ,0.00024260,-0.00001716,0.00000646,-0.00001628,0.00005202,0.00001663,0
 .00006276,-0.00001032,-0.00001132,0.00000304,-0.00021667,0.00087067,0.
 00087744,-0.01307523,0.00757060,0.00651400,-0.00303194,0.00094538,0.00
 255539,-0.10232337,0.10725901,0.00003063,-0.00000667,-0.00000070,-0.00
 002514,0.00000481,-0.00000087,-0.00002267,0.00006001,-0.00003275,0.000
 19600,0.00034124,0.00101223,-0.00009628,-0.00002961,0.00011224,0.00034
 978,0.00006683,0.00006316,-0.00043200,-0.00107172,-0.00064067,0.000596
 23,0.00059156,-0.00005582,0.00007859,0.00028678,-0.00015393,-0.0000945
 0,-0.00021718,0.00001983,0.00014639,0.00016532,0.00008039,0.00008360,0
 .00014585,0.00002622,0.00303216,-0.00089530,-0.00427886,0.09896190,-0.
 05583577,-0.10632991,-0.00004353,-0.00181945,0.00044811,0.00001349,0.0
 0001797,0.00002047,0.00002442,-0.00000786,0.00000439,-0.00000329,-0.00
 000260,-0.00001208,-0.00000705,-0.00000373,-0.00001595,-0.00000280,0.0
 0000401,0.00000562,-0.00006967,-0.00002523,-0.00004284,-0.00012439,0.0
 0006097,0.00001706,-0.00021480,0.00022776,-0.00086449,0.00001463,-0.00
 013297,0.00027590,0.00000349,0.00000459,-0.00000437,0.00003101,0.00001
 043,0.00002697,-0.00001594,-0.00001785,0.00001341,-0.00008046,-0.00021
 929,0.00001867,0.02017872,-0.01356364,-0.01143946,-0.01471398,0.010056
 68,0.00990652,-0.10779674,0.06180385,0.11182438,-0.00009737,0.00011510
 ,0.00020483,0.00166869,0.00019820,-0.00074891,-0.00307258,0.00026875,-
 0.00189917,-0.00114366,-0.00015197,0.00043479,-0.00071735,0.00066747,0
 .00214921,0.00028747,-0.00003398,0.00002616,0.00006614,-0.00002903,-0.
 00001293,-0.00003253,0.00000541,0.00000876,0.00000010,0.00000127,0.000
 01730,0.00001446,0.00001062,0.00003646,-0.00000217,-0.00001770,-0.0000
 2602,-0.00000851,0.00000002,-0.00001784,-0.00007473,0.00004898,0.00014
 777,0.00000963,-0.00001521,0.00001114,-0.00001154,0.00000927,-0.000294
 76,-0.33122100,0.01108954,-0.06817824,-0.01333473,0.00032918,-0.006253
 61,0.00069616,-0.00062711,-0.00091197,-0.00097269,0.00132207,0.0026885
 4,0.00070897,-0.00000298,0.00067945,0.00001908,-0.00000763,0.00001127,
 0.00000004,0.00000809,0.00002245,-0.00000227,0.00000289,-0.00000084,0.
 00000731,0.00000257,-0.00000018,-0.00000402,-0.00000106,-0.00000649,0.
 00002054,0.00000176,-0.00000935,-0.00000491,-0.00000048,0.00000164,0.0
 0003440,0.00001918,0.00003644,-0.00000196,-0.00000368,-0.00000455,0.00
 000358,0.00000799,0.00000214,-0.00000010,-0.00000139,0.00000208,0.3476
 9993,-0.00039405,0.00009263,-0.00023179,0.00068399,0.00540353,-0.00239
 218,-0.00598581,0.00459914,-0.00101739,-0.00013526,-0.00385947,0.00044
 751,-0.00007664,0.00050240,-0.00055471,0.00011243,-0.00029484,0.000053
 18,0.00004017,-0.00002658,-0.00003747,-0.00004088,0.00001251,0.0000342
 4,-0.00000581,0.00000351,-0.00000317,0.00002752,0.00006171,0.00000832,
 -0.00001321,-0.00003118,-0.00001363,-0.00001493,-0.00003054,0.00000685
 ,0.00012336,0.00006900,-0.00006037,-0.00002253,0.00000918,0.00003254,0
 .00002156,0.00010881,0.00048533,0.01117589,-0.03997113,-0.00119819,0.0
 0663996,0.00419509,0.00121023,-0.00022545,-0.00274325,0.00105715,0.001
 24535,0.00534517,-0.00234115,-0.00017117,-0.00104213,0.00007175,-0.000
 08879,0.00000307,0.00010687,-0.00001801,-0.00000002,0.00005955,-0.0000
 0706,-0.00000127,-0.00000567,0.00001223,0.00000729,-0.00000763,-0.0000
 0799,-0.00000243,0.00000012,0.00001294,0.00000216,0.00001487,-0.000002
 72,0.00000743,0.00000076,-0.00000270,0.00000153,-0.00000489,-0.0000003
 1,-0.00000604,-0.00000074,0.00000340,0.00000222,0.00000296,0.00000421,
 0.00001301,-0.00000042,-0.01312034,0.02793144,-0.00169904,-0.00003876,
 -0.00067131,0.00045504,-0.00249003,-0.00452130,-0.02747835,0.00104585,
 -0.00241066,-0.00169628,0.00105040,-0.00109677,-0.00023774,-0.00025601
 ,0.00001661,0.00078116,0.00023450,-0.00004574,0.00014840,-0.00016105,0
 .00001480,-0.00016219,0.00007592,0.00009147,-0.00002891,0.00003498,0.0
 0000605,0.00009459,0.00008250,0.00003272,-0.00004943,-0.00004978,-0.00
 003499,-0.00005451,-0.00003115,-0.00000350,-0.00003994,-0.00009772,0.0
 0013330,0.00001575,-0.00000254,0.00003397,0.00038598,0.00004364,0.0011
 7152,-0.06812619,-0.00106255,-0.07151582,0.02095390,-0.00129742,0.0076
 6404,0.00081534,0.00089232,0.00103888,0.00289910,-0.00235490,-0.002847
 98,0.00004233,0.00003465,-0.00086766,-0.00026722,0.00011915,0.00040493
 ,-0.00003383,-0.00000543,0.00002792,-0.00000333,0.00000415,0.00000153,
 0.00004349,0.00001593,-0.00002544,-0.00002822,-0.00000327,0.00000573,0
 .00002773,-0.00002300,0.00003997,0.00000944,0.00000898,-0.00000018,0.0
 0005231,0.00002972,0.00004878,-0.00000399,-0.00000903,-0.00000548,0.00
 001063,0.00002235,0.00000308,-0.00000263,0.00001197,-0.00000081,0.0721
 9511,0.00401318,0.07266049,0.00062016,-0.00015243,-0.00037041,0.000053
 13,0.00015743,-0.00281919,0.00009504,-0.00035900,-0.00124493,-0.000225
 23,-0.00001529,0.00017407,0.00004752,0.00000633,0.00007131,0.00005294,
 0.00001994,0.00002212,-0.00001306,0.00000844,-0.00000435,0.00001070,-0
 .00000256,-0.00000642,0.00000154,-0.00000156,-0.00000227,-0.00000399,-
 0.00000320,-0.00000321,0.00000212,0.00000269,0.00000225,0.00000393,0.0
 0000107,0.00000083,-0.00000865,0.00000388,0.00003959,0.00000378,-0.000
 00131,-0.00000102,0.00003188,0.00000323,0.00001799,-0.00487818,0.00038
 283,-0.00256782,-0.01438651,0.00658121,0.02079618,0.00096218,-0.000093
 25,0.00101810,-0.19394304,0.04676581,0.13636568,0.01108716,-0.00246056
 ,-0.00797216,-0.00008418,-0.00005970,-0.00014733,0.00000491,-0.0000081
 9,-0.00001768,-0.00000081,0.00000011,0.00000076,-0.00000255,-0.0000008
 9,0.00000165,0.00000109,0.00000031,0.00000098,-0.00000029,-0.00000012,
 -0.00000123,-0.00000053,-0.00000040,0.00000018,0.00000133,0.00000086,-
 0.00000004,0.,0.00000136,0.00000007,-0.00000076,0.00000024,0.00000049,
 -0.00000003,-0.00000155,-0.00000081,-0.00046263,0.00026187,0.00101637,
 0.20054977,0.00018410,-0.00021875,-0.00022409,0.00023146,0.00788691,-0
 .00226376,-0.00032225,-0.00071498,0.00023012,0.00005839,-0.00079863,0.
 00009713,-0.00001647,0.00023094,-0.00008164,-0.00000895,-0.00007235,0.
 00000681,0.00000685,0.00000224,-0.00000331,-0.00000238,-0.00000135,0.0
 0000408,-0.00000051,-0.00000145,0.00000056,0.00000120,0.00000584,-0.00
 000017,-0.00000132,-0.00000306,-0.00000060,-0.00000134,-0.00000310,0.0
 0000140,-0.00000010,0.00002986,-0.00000685,-0.00000414,0.00000275,0.00
 000414,0.00002318,-0.00000147,0.00001699,0.00041428,0.00507879,-0.0008
 3289,-0.00002653,0.00341302,-0.00108393,-0.00041441,-0.00209792,0.0007
 0693,0.04712364,-0.05504834,-0.04956707,0.00404307,0.00362804,-0.00345
 655,-0.00009383,-0.00026560,0.00004309,-0.00000455,0.00000076,0.000011
 42,0.00000072,-0.00000077,-0.00000151,0.00000053,0.00000097,-0.0000005
 2,-0.00000013,-0.00000022,-0.00000028,0.00000144,0.00000088,0.00000119
 ,-0.00000016,0.00000105,-0.00000007,-0.00000125,-0.00000157,-0.0000038
 7,0.00000070,-0.00000024,0.00000051,0.00000020,-0.00000016,-0.00000023
 ,0.00000043,0.00000065,0.00000038,-0.00006163,-0.00006240,0.00005627,-
 0.05063838,0.04349791,0.00122044,-0.00035329,-0.00123691,-0.00283189,-
 0.00224785,-0.00244230,-0.00072698,0.00014708,-0.00044177,-0.00000127,
 0.00017704,-0.00011262,0.00001468,-0.00002801,0.00007568,0.00002225,-0
 .00000294,-0.00000271,0.00000663,-0.00000148,0.00000121,-0.00000239,0.
 00000141,0.00000217,0.00000078,-0.00000024,-0.00000042,0.00000217,0.00
 000055,0.00000113,-0.00000140,-0.00000044,-0.00000070,-0.00000147,0.00
 000004,-0.00000049,-0.00001695,0.00001116,0.00003222,0.00000157,-0.000
 00149,-0.00000217,0.00008001,-0.00000354,0.00003351,-0.00249791,-0.000
 85212,0.00063506,-0.00747890,0.00166743,0.00769953,-0.00038304,0.00083
 204,0.00106815,0.13803464,-0.04969116,-0.19508780,0.01993637,-0.006243
 65,-0.01370915,-0.00031193,0.00003692,-0.00018913,-0.00000023,0.000003
 11,0.00000463,-0.00000030,0.00000047,-0.00000027,0.00000059,-0.0000000
 8,-0.00000044,-0.00000024,0.00000006,0.00000049,0.00000084,-0.00000070
 ,0.00000064,0.00000054,0.00000009,0.00000005,0.00000412,-0.00000025,0.
 00000093,-0.00000128,-0.00000039,-0.00000060,-0.00000004,0.00000162,0.
 00000174,0.00000023,-0.00000149,-0.00000037,-0.00027902,0.00016423,0.0
 0053844,-0.14486418,0.05506316,0.20221928,0.00137967,-0.00081704,-0.00
 165787,-0.01560443,0.00014220,-0.00774921,-0.00148139,0.00130718,0.003
 00001,-0.00024677,-0.00021351,-0.00101645,-0.00034305,0.00009844,0.000
 31360,-0.00002861,0.00001859,-0.00007127,0.00003751,-0.00003888,0.0000
 2714,-0.00004357,0.00002137,0.00002468,-0.00000288,0.00000483,0.000004
 25,0.00001645,0.00001605,0.00000741,-0.00000899,-0.00001026,-0.0000070
 0,-0.00001143,-0.00000712,-0.00000106,0.00000478,-0.00000352,0.0000173
 9,-0.00000945,0.00000040,0.00000835,0.00016312,0.00001633,0.00008926,0
 .00059789,0.00008607,0.00104157,0.00215061,0.00031125,-0.00087095,-0.0
 0007620,0.00003397,0.00002960,-0.00212351,0.00046403,-0.00019782,-0.32
 749610,0.01140707,-0.07150883,0.00003901,-0.00004921,0.00012685,-0.000
 01246,0.00000895,0.00002790,0.00000046,0.00000142,-0.00000080,0.000009
 79,0.00000421,-0.00000569,-0.00000494,-0.00000083,-0.00000087,0.000003
 54,-0.00000255,0.00000499,0.00000141,0.00000191,-0.00000029,-0.0000016
 6,0.00000735,0.00000900,-0.00000111,-0.00000300,-0.00000140,0.00000264
 ,0.00000399,0.00000238,0.00000099,0.00000473,0.00000088,-0.00007174,-0
 .00003124,-0.00003485,0.00048124,-0.00049187,0.00007355,0.34267917,-0.
 00055642,-0.00272929,0.00127346,0.00690254,0.00475767,0.00160472,0.001
 15056,0.00416051,-0.00202103,0.00022555,0.00006021,0.00027512,0.000073
 80,-0.00012203,-0.00010180,0.00001831,-0.00001465,0.00002687,-0.000003
 71,0.00001022,-0.00000782,0.00001321,-0.00000826,-0.00000751,0.0000010
 1,-0.00000232,-0.00000114,-0.00000443,-0.00000161,-0.00000469,0.000002
 54,0.00000173,0.00000261,0.00000378,-0.00000041,0.00000187,-0.00000831
 ,0.00001420,0.00001071,-0.00000238,0.00000111,-0.00000025,-0.00002264,
 0.00000935,-0.00001605,-0.00005890,-0.00102218,-0.00017314,0.00035210,
 0.00695956,-0.00239736,-0.00025533,0.00014975,-0.00030752,-0.00605884,
 0.00345152,-0.00137463,0.01099641,-0.03714044,-0.00242272,-0.00004589,
 -0.00063069,0.00014992,0.00000455,-0.00000714,-0.00000811,-0.00000059,
 0.,0.00000018,-0.00000272,-0.00000022,0.00000125,0.00000178,0.00000027
 ,0.00000007,-0.00000092,0.00000141,-0.00000176,-0.00000083,0.00000015,
 0.00000002,0.00000286,-0.00000384,-0.00000300,-0.00000141,0.00000105,0
 .00000209,-0.00000087,-0.00000089,-0.00000116,-0.00000011,-0.00000191,
 0.00000023,-0.00003418,-0.00029955,0.00010619,-0.00039922,-0.00448825,
 0.00132270,-0.01229132,0.02689496,-0.00057089,0.00115076,0.00165338,0.
 02137981,-0.00111950,0.00879778,0.00244793,-0.00199310,-0.00270963,0.0
 0069355,0.00013200,0.00083503,0.00040725,-0.00009388,-0.00037265,0.000
 07173,-0.00004721,0.00007331,-0.00003542,0.00004944,-0.00002934,0.0000
 4970,-0.00002472,-0.00002988,0.00000411,-0.00000717,-0.00000486,-0.000
 01938,-0.00001876,-0.00000848,0.00001038,0.00001213,0.00000833,0.00001
 302,0.00000823,0.00000134,-0.00003943,0.00003236,0.00002633,0.00000944
 ,-0.00000156,-0.00000923,-0.00000750,-0.00003097,-0.00002683,0.0002888
 6,-0.00007968,-0.00125740,-0.00050541,-0.00242457,-0.00315233,-0.00124
 142,-0.00019157,-0.00113440,-0.02853341,0.00125871,-0.00314629,-0.0732
 5736,-0.00220296,-0.07516440,0.00005138,0.00016250,0.00002266,0.000014
 24,-0.00000496,-0.00002290,-0.00000090,-0.00000091,0.00000078,-0.00001
 119,-0.00000501,0.00000680,0.00000583,0.00000101,0.00000145,-0.0000033
 8,0.00000270,-0.00000531,-0.00000178,-0.00000226,0.00000030,0.00000411
 ,-0.00000914,-0.00001115,0.00000112,0.00000294,0.00000042,-0.00000300,
 -0.00000342,-0.00000142,-0.00000037,-0.00000597,-0.00000168,-0.0000316
 2,0.00009975,0.00011341,0.00049441,0.00128314,0.00091298,0.07831558,0.
 00407166,0.07463391\\0.00000331,0.00000220,0.00000026,-0.00001657,0.00
 000071,-0.00001199,0.00000430,-0.00000229,-0.00000117,0.00002755,0.000
 00757,0.00002059,-0.00001646,-0.00000237,0.00000110,0.00000727,0.00000
 055,-0.00000713,-0.00000598,0.00000016,0.00000540,0.00000499,0.0000044
 0,-0.00000202,-0.00000154,-0.00000306,0.00000751,0.00000174,-0.0000014
 5,0.00001163,-0.00000636,-0.00000934,0.00001293,0.00000182,0.00000312,
 -0.00000159,-0.00001899,0.00001178,0.00000999,0.00000522,0.00000097,-0
 .00000019,0.00000252,-0.00000668,-0.00002513,-0.00000228,-0.00000560,-
 0.00000585,-0.00001175,-0.00000168,0.00000169,-0.00000347,-0.00000724,
 -0.00000097,0.00000172,-0.00000206,0.00000656,0.00000541,-0.00000327,-
 0.00000862,0.00000662,0.00000330,-0.00000365,0.00000197,0.00000167,0.0
 0000561,0.00000132,-0.00000004,-0.00000121,0.00000200,0.00000071,0.000
 00330,0.00000019,-0.00000121,0.00000144,-0.00000136,-0.00000150,0.0000
 0157,0.00000383,0.00000194,0.00000630,0.00000597,0.00000426,0.00000008
 ,0.00000022,0.00000225,-0.00000666,0.00000358,0.00000497,-0.00000476,0
 .00000412,0.00000482,-0.00000283,-0.00000227,-0.00000358,0.00000066,-0
 .00000654,-0.00000438,-0.00000776,-0.00000210,0.00000035,-0.00000509\\
 \@


 IT IS THE GODS' CUSTOM TO BRING LOW ALL THINGS OF SURPASSING GREATNESS.
     -- HERODOTUS
 IT IS THE LOFTY PINE THAT BY THE STORM IS OFTENER TOSSED;
 TOWERS FALL WITH HEAVIER CRASH WHICH HIGHER SOAR.
     -- HORACE
 THE BIGGER THEY COME, THE HARDER THEY FALL.
     -- BOB FITZSIMONS HEAVYWEIGHT CHAMPION, 1897-1899
 Job cpu time:  0 days  8 hours  5 minutes 33.2 seconds.
 File lengths (MBytes):  RWF=    868 Int=      0 D2E=      0 Chk=     20 Scr=      1
 Normal termination of Gaussian 09 at Sat Mar 23 00:06:33 2019.
