 Entering Gaussian System, Link 0=g09
 Initial command:
 /home/yuheng/proj/yuheng/g09/l1.exe /home/yuheng/proj/yuheng/g09_scratch/Gau-19232.inp -scrdir=/home/yuheng/proj/yuheng/g09_scratch/
 Entering Link 1 = /home/yuheng/proj/yuheng/g09/l1.exe PID=     19233.
  
 Copyright (c) 1988,1990,1992,1993,1995,1998,2003,2009,2010,
            Gaussian, Inc.  All Rights Reserved.
  
 This is part of the Gaussian(R) 09 program.  It is based on
 the Gaussian(R) 03 system (copyright 2003, Gaussian, Inc.),
 the Gaussian(R) 98 system (copyright 1998, Gaussian, Inc.),
 the Gaussian(R) 94 system (copyright 1995, Gaussian, Inc.),
 the Gaussian 92(TM) system (copyright 1992, Gaussian, Inc.),
 the Gaussian 90(TM) system (copyright 1990, Gaussian, Inc.),
 the Gaussian 88(TM) system (copyright 1988, Gaussian, Inc.),
 the Gaussian 86(TM) system (copyright 1986, Carnegie Mellon
 University), and the Gaussian 82(TM) system (copyright 1983,
 Carnegie Mellon University). Gaussian is a federally registered
 trademark of Gaussian, Inc.
  
 This software contains proprietary and confidential information,
 including trade secrets, belonging to Gaussian, Inc.
  
 This software is provided under written license and may be
 used, copied, transmitted, or stored only in accord with that
 written license.
  
 The following legend is applicable only to US Government
 contracts under FAR:
  
                    RESTRICTED RIGHTS LEGEND
  
 Use, reproduction and disclosure by the US Government is
 subject to restrictions as set forth in subparagraphs (a)
 and (c) of the Commercial Computer Software - Restricted
 Rights clause in FAR 52.227-19.
  
 Gaussian, Inc.
 340 Quinnipiac St., Bldg. 40, Wallingford CT 06492
  
  
 ---------------------------------------------------------------
 Warning -- This program may not be used in any manner that
 competes with the business of Gaussian, Inc. or will provide
 assistance to any competitor of Gaussian, Inc.  The licensee
 of this program is prohibited from giving any competitor of
 Gaussian, Inc. access to this program.  By using this program,
 the user acknowledges that Gaussian, Inc. is engaged in the
 business of creating and licensing software in the field of
 computational chemistry and represents and warrants to the
 licensee that it is not a competitor of Gaussian, Inc. and that
 it will not use this program in any manner prohibited above.
 ---------------------------------------------------------------
  

 Cite this work as:
 Gaussian 09, Revision B.01,
 M. J. Frisch, G. W. Trucks, H. B. Schlegel, G. E. Scuseria, 
 M. A. Robb, J. R. Cheeseman, G. Scalmani, V. Barone, B. Mennucci, 
 G. A. Petersson, H. Nakatsuji, M. Caricato, X. Li, H. P. Hratchian, 
 A. F. Izmaylov, J. Bloino, G. Zheng, J. L. Sonnenberg, M. Hada, 
 M. Ehara, K. Toyota, R. Fukuda, J. Hasegawa, M. Ishida, T. Nakajima, 
 Y. Honda, O. Kitao, H. Nakai, T. Vreven, J. A. Montgomery, Jr., 
 J. E. Peralta, F. Ogliaro, M. Bearpark, J. J. Heyd, E. Brothers, 
 K. N. Kudin, V. N. Staroverov, T. Keith, R. Kobayashi, J. Normand, 
 K. Raghavachari, A. Rendell, J. C. Burant, S. S. Iyengar, J. Tomasi, 
 M. Cossi, N. Rega, J. M. Millam, M. Klene, J. E. Knox, J. B. Cross, 
 V. Bakken, C. Adamo, J. Jaramillo, R. Gomperts, R. E. Stratmann, 
 O. Yazyev, A. J. Austin, R. Cammi, C. Pomelli, J. W. Ochterski, 
 R. L. Martin, K. Morokuma, V. G. Zakrzewski, G. A. Voth, 
 P. Salvador, J. J. Dannenberg, S. Dapprich, A. D. Daniels, 
 O. Farkas, J. B. Foresman, J. V. Ortiz, J. Cioslowski, 
 and D. J. Fox, Gaussian, Inc., Wallingford CT, 2010.
 
 ******************************************
 Gaussian 09:  EM64L-G09RevB.01 12-Aug-2010
                22-Mar-2019 
 ******************************************
 %mem=16gb
 %nprocshared=20
 Will use up to   20 processors via shared memory.
 %chk=1b-conf-7.chk
 ----------------------------------------------------------------------
 # m062x/6-31+G(d,p) opt freq=noraman integral(ultrafinegrid) scrf=(ief
 pcm,read,solvent=methanol)
 ----------------------------------------------------------------------
 1/14=-1,18=20,19=15,26=3,38=1,40=2/1,3;
 2/9=110,12=2,17=6,18=5,40=1/2;
 3/5=1,6=6,7=111,11=2,16=1,25=1,30=1,70=2203,71=1,72=3,74=-55,75=-5/1,2,3;
 4//1;
 5/5=2,38=5,53=3/2;
 6/7=2,8=2,9=2,10=2,28=1/1;
 7//1,2,3,16;
 1/14=-1,18=20,19=15/3(2);
 2/9=110/2;
 99//99;
 2/9=110/2;
 3/5=1,6=6,7=111,11=2,16=1,25=1,30=1,70=2205,71=1,72=3,74=-55,75=-5/1,2,3;
 4/5=5,16=3/1;
 5/5=2,38=5,53=3/2;
 7//1,2,3,16;
 1/14=-1,18=20,19=15/3(-5);
 2/9=110/2;
 6/7=2,8=2,9=2,10=2,19=2,28=1/1;
 99/9=1/99;
 ----------------------------------------------------------------------
 Candidate Structure: 1b, Conformer: 7 geometry optimization and freque
 ncy calculation with methanol solvation
 ----------------------------------------------------------------------
 Symbolic Z-matrix:
 Charge =  0 Multiplicity = 1
 O                    -0.30086   0.54961  -0.44696 
 C                    -1.22685   1.53552  -0.25731 
 C                    -1.05917   2.84786  -0.78394 
 C                     0.12494   3.26901  -1.58358 
 N                     1.08717   2.49831  -1.8812 
 C                     2.0826    3.25948  -2.58846 
 C                     2.69852   2.43925  -3.75776 
 O                     3.7462    3.17594  -4.36615 
 C                     3.20703   1.02539  -3.36852 
 C                     4.23286   0.97344  -2.23089 
 O                     4.30662  -0.26184  -1.67036 
 O                     4.93146   1.92705  -1.89564 
 C                     1.36618   4.57991  -2.94774 
 C                     0.82449   4.72681  -4.3815 
 O                     0.25536   4.5359   -2.07529 
 C                    -2.06063   3.81543  -0.54465 
 C                    -3.20812   3.49062   0.20191 
 Cl                   -4.41922   4.68631   0.48251 
 C                    -3.36836   2.19256   0.71917 
 C                    -2.37906   1.21853   0.48916 
 H                     0.42729   0.89156  -0.96278 
 H                     2.87289   3.50727  -1.87722 
 H                     1.93407   2.28902  -4.52027 
 H                     4.46067   3.2354   -3.74244 
 H                     3.64295   0.53934  -4.2415 
 H                     2.35515   0.40823  -3.08053 
 H                     4.95646  -0.26153  -0.98459 
 H                     1.99733   5.43541  -2.70362 
 H                     0.16323   3.9021   -4.64781 
 H                     0.25661   5.6513   -4.48492 
 H                     1.63532   4.75972  -5.10953 
 H                    -1.957     4.81815  -0.93325 
 H                    -4.24958   1.94413   1.29221 
 H                    -2.50426   0.22211   0.88769 
 

 GradGradGradGradGradGradGradGradGradGradGradGradGradGradGradGradGradGrad
 Berny optimization.
 Initialization pass.
                           ----------------------------
                           !    Initial Parameters    !
                           ! (Angstroms and Degrees)  !
 --------------------------                            --------------------------
 ! Name  Definition              Value          Derivative Info.                !
 --------------------------------------------------------------------------------
 ! R1    R(1,2)                  1.3658         estimate D2E/DX2                !
 ! R2    R(1,21)                 0.9556         estimate D2E/DX2                !
 ! R3    R(2,3)                  1.424          estimate D2E/DX2                !
 ! R4    R(2,20)                 1.409          estimate D2E/DX2                !
 ! R5    R(3,4)                  1.4896         estimate D2E/DX2                !
 ! R6    R(3,16)                 1.4129         estimate D2E/DX2                !
 ! R7    R(4,5)                  1.2682         estimate D2E/DX2                !
 ! R8    R(4,15)                 1.3652         estimate D2E/DX2                !
 ! R9    R(5,6)                  1.4389         estimate D2E/DX2                !
 ! R10   R(6,7)                  1.5554         estimate D2E/DX2                !
 ! R11   R(6,13)                 1.5446         estimate D2E/DX2                !
 ! R12   R(6,22)                 1.0917         estimate D2E/DX2                !
 ! R13   R(7,8)                  1.4179         estimate D2E/DX2                !
 ! R14   R(7,9)                  1.5521         estimate D2E/DX2                !
 ! R15   R(7,23)                 1.0901         estimate D2E/DX2                !
 ! R16   R(8,24)                 0.9503         estimate D2E/DX2                !
 ! R17   R(9,10)                 1.5327         estimate D2E/DX2                !
 ! R18   R(9,25)                 1.0901         estimate D2E/DX2                !
 ! R19   R(9,26)                 1.0907         estimate D2E/DX2                !
 ! R20   R(10,11)                1.3585         estimate D2E/DX2                !
 ! R21   R(10,12)                1.2288         estimate D2E/DX2                !
 ! R22   R(11,27)                0.9448         estimate D2E/DX2                !
 ! R23   R(13,14)                1.5397         estimate D2E/DX2                !
 ! R24   R(13,15)                1.4132         estimate D2E/DX2                !
 ! R25   R(13,28)                1.0908         estimate D2E/DX2                !
 ! R26   R(14,29)                1.0901         estimate D2E/DX2                !
 ! R27   R(14,30)                1.0899         estimate D2E/DX2                !
 ! R28   R(14,31)                1.0902         estimate D2E/DX2                !
 ! R29   R(16,17)                1.407          estimate D2E/DX2                !
 ! R30   R(16,32)                1.0804         estimate D2E/DX2                !
 ! R31   R(17,18)                1.7249         estimate D2E/DX2                !
 ! R32   R(17,19)                1.4065         estimate D2E/DX2                !
 ! R33   R(19,20)                1.4072         estimate D2E/DX2                !
 ! R34   R(19,33)                1.0801         estimate D2E/DX2                !
 ! R35   R(20,34)                1.0804         estimate D2E/DX2                !
 ! A1    A(2,1,21)             109.466          estimate D2E/DX2                !
 ! A2    A(1,2,3)              122.2811         estimate D2E/DX2                !
 ! A3    A(1,2,20)             117.748          estimate D2E/DX2                !
 ! A4    A(3,2,20)             119.9709         estimate D2E/DX2                !
 ! A5    A(2,3,4)              123.5519         estimate D2E/DX2                !
 ! A6    A(2,3,16)             119.0136         estimate D2E/DX2                !
 ! A7    A(4,3,16)             117.4345         estimate D2E/DX2                !
 ! A8    A(3,4,5)              123.8681         estimate D2E/DX2                !
 ! A9    A(3,4,15)             122.1166         estimate D2E/DX2                !
 ! A10   A(5,4,15)             114.0118         estimate D2E/DX2                !
 ! A11   A(4,5,6)              108.5876         estimate D2E/DX2                !
 ! A12   A(5,6,7)              111.3758         estimate D2E/DX2                !
 ! A13   A(5,6,13)             104.2217         estimate D2E/DX2                !
 ! A14   A(5,6,22)             107.4957         estimate D2E/DX2                !
 ! A15   A(7,6,13)             117.3606         estimate D2E/DX2                !
 ! A16   A(7,6,22)             108.8322         estimate D2E/DX2                !
 ! A17   A(13,6,22)            107.0539         estimate D2E/DX2                !
 ! A18   A(6,7,8)              109.9478         estimate D2E/DX2                !
 ! A19   A(6,7,9)              114.9334         estimate D2E/DX2                !
 ! A20   A(6,7,23)             108.7124         estimate D2E/DX2                !
 ! A21   A(8,7,9)              109.8035         estimate D2E/DX2                !
 ! A22   A(8,7,23)             106.8352         estimate D2E/DX2                !
 ! A23   A(9,7,23)             106.2378         estimate D2E/DX2                !
 ! A24   A(7,8,24)             107.8437         estimate D2E/DX2                !
 ! A25   A(7,9,10)             115.8674         estimate D2E/DX2                !
 ! A26   A(7,9,25)             109.6539         estimate D2E/DX2                !
 ! A27   A(7,9,26)             109.0126         estimate D2E/DX2                !
 ! A28   A(10,9,25)            108.158          estimate D2E/DX2                !
 ! A29   A(10,9,26)            107.9138         estimate D2E/DX2                !
 ! A30   A(25,9,26)            105.753          estimate D2E/DX2                !
 ! A31   A(9,10,11)            111.9266         estimate D2E/DX2                !
 ! A32   A(9,10,12)            123.8296         estimate D2E/DX2                !
 ! A33   A(11,10,12)           124.2106         estimate D2E/DX2                !
 ! A34   A(10,11,27)           109.6669         estimate D2E/DX2                !
 ! A35   A(6,13,14)            117.4735         estimate D2E/DX2                !
 ! A36   A(6,13,15)            101.2071         estimate D2E/DX2                !
 ! A37   A(6,13,28)            110.4884         estimate D2E/DX2                !
 ! A38   A(14,13,15)           107.5375         estimate D2E/DX2                !
 ! A39   A(14,13,28)           109.7028         estimate D2E/DX2                !
 ! A40   A(15,13,28)           109.9426         estimate D2E/DX2                !
 ! A41   A(13,14,29)           111.6367         estimate D2E/DX2                !
 ! A42   A(13,14,30)           110.6468         estimate D2E/DX2                !
 ! A43   A(13,14,31)           111.2889         estimate D2E/DX2                !
 ! A44   A(29,14,30)           107.6063         estimate D2E/DX2                !
 ! A45   A(29,14,31)           108.1103         estimate D2E/DX2                !
 ! A46   A(30,14,31)           107.3701         estimate D2E/DX2                !
 ! A47   A(4,15,13)            109.0475         estimate D2E/DX2                !
 ! A48   A(3,16,17)            120.6532         estimate D2E/DX2                !
 ! A49   A(3,16,32)            120.4424         estimate D2E/DX2                !
 ! A50   A(17,16,32)           118.9044         estimate D2E/DX2                !
 ! A51   A(16,17,18)           119.9297         estimate D2E/DX2                !
 ! A52   A(16,17,19)           120.0737         estimate D2E/DX2                !
 ! A53   A(18,17,19)           119.9966         estimate D2E/DX2                !
 ! A54   A(17,19,20)           119.9072         estimate D2E/DX2                !
 ! A55   A(17,19,33)           120.0222         estimate D2E/DX2                !
 ! A56   A(20,19,33)           120.0706         estimate D2E/DX2                !
 ! A57   A(2,20,19)            120.3814         estimate D2E/DX2                !
 ! A58   A(2,20,34)            119.8447         estimate D2E/DX2                !
 ! A59   A(19,20,34)           119.7739         estimate D2E/DX2                !
 ! D1    D(21,1,2,3)             0.1184         estimate D2E/DX2                !
 ! D2    D(21,1,2,20)         -179.8536         estimate D2E/DX2                !
 ! D3    D(1,2,3,4)              0.0681         estimate D2E/DX2                !
 ! D4    D(1,2,3,16)          -179.9378         estimate D2E/DX2                !
 ! D5    D(20,2,3,4)          -179.9606         estimate D2E/DX2                !
 ! D6    D(20,2,3,16)            0.0335         estimate D2E/DX2                !
 ! D7    D(1,2,20,19)          179.9533         estimate D2E/DX2                !
 ! D8    D(1,2,20,34)           -0.0345         estimate D2E/DX2                !
 ! D9    D(3,2,20,19)           -0.0194         estimate D2E/DX2                !
 ! D10   D(3,2,20,34)          179.9928         estimate D2E/DX2                !
 ! D11   D(2,3,4,5)              0.6895         estimate D2E/DX2                !
 ! D12   D(2,3,4,15)           179.9639         estimate D2E/DX2                !
 ! D13   D(16,3,4,5)          -179.3047         estimate D2E/DX2                !
 ! D14   D(16,3,4,15)           -0.0302         estimate D2E/DX2                !
 ! D15   D(2,3,16,17)           -0.0278         estimate D2E/DX2                !
 ! D16   D(2,3,16,32)          179.9935         estimate D2E/DX2                !
 ! D17   D(4,3,16,17)          179.9667         estimate D2E/DX2                !
 ! D18   D(4,3,16,32)           -0.0121         estimate D2E/DX2                !
 ! D19   D(3,4,5,6)           -176.688          estimate D2E/DX2                !
 ! D20   D(15,4,5,6)             3.9847         estimate D2E/DX2                !
 ! D21   D(3,4,15,13)         -171.3868         estimate D2E/DX2                !
 ! D22   D(5,4,15,13)            7.9537         estimate D2E/DX2                !
 ! D23   D(4,5,6,7)           -140.5058         estimate D2E/DX2                !
 ! D24   D(4,5,6,13)           -13.036          estimate D2E/DX2                !
 ! D25   D(4,5,6,22)           100.3614         estimate D2E/DX2                !
 ! D26   D(5,6,7,8)           -175.4219         estimate D2E/DX2                !
 ! D27   D(5,6,7,9)            -50.9368         estimate D2E/DX2                !
 ! D28   D(5,6,7,23)            67.9476         estimate D2E/DX2                !
 ! D29   D(13,6,7,8)            64.6047         estimate D2E/DX2                !
 ! D30   D(13,6,7,9)          -170.9103         estimate D2E/DX2                !
 ! D31   D(13,6,7,23)          -52.0258         estimate D2E/DX2                !
 ! D32   D(22,6,7,8)           -57.0889         estimate D2E/DX2                !
 ! D33   D(22,6,7,9)            67.3962         estimate D2E/DX2                !
 ! D34   D(22,6,7,23)         -173.7194         estimate D2E/DX2                !
 ! D35   D(5,6,13,14)         -100.1429         estimate D2E/DX2                !
 ! D36   D(5,6,13,15)           16.5532         estimate D2E/DX2                !
 ! D37   D(5,6,13,28)          132.9908         estimate D2E/DX2                !
 ! D38   D(7,6,13,14)           23.5347         estimate D2E/DX2                !
 ! D39   D(7,6,13,15)          140.2308         estimate D2E/DX2                !
 ! D40   D(7,6,13,28)         -103.3316         estimate D2E/DX2                !
 ! D41   D(22,6,13,14)         146.1444         estimate D2E/DX2                !
 ! D42   D(22,6,13,15)         -97.1594         estimate D2E/DX2                !
 ! D43   D(22,6,13,28)          19.2781         estimate D2E/DX2                !
 ! D44   D(6,7,8,24)            68.1352         estimate D2E/DX2                !
 ! D45   D(9,7,8,24)           -59.263          estimate D2E/DX2                !
 ! D46   D(23,7,8,24)         -174.0641         estimate D2E/DX2                !
 ! D47   D(6,7,9,10)           -55.7686         estimate D2E/DX2                !
 ! D48   D(6,7,9,25)          -178.5159         estimate D2E/DX2                !
 ! D49   D(6,7,9,26)            66.1445         estimate D2E/DX2                !
 ! D50   D(8,7,9,10)            68.7923         estimate D2E/DX2                !
 ! D51   D(8,7,9,25)           -53.955          estimate D2E/DX2                !
 ! D52   D(8,7,9,26)          -169.2946         estimate D2E/DX2                !
 ! D53   D(23,7,9,10)         -176.0262         estimate D2E/DX2                !
 ! D54   D(23,7,9,25)           61.2266         estimate D2E/DX2                !
 ! D55   D(23,7,9,26)          -54.113          estimate D2E/DX2                !
 ! D56   D(7,9,10,11)          160.4576         estimate D2E/DX2                !
 ! D57   D(7,9,10,12)          -21.564          estimate D2E/DX2                !
 ! D58   D(25,9,10,11)         -76.0104         estimate D2E/DX2                !
 ! D59   D(25,9,10,12)         101.968          estimate D2E/DX2                !
 ! D60   D(26,9,10,11)          37.9619         estimate D2E/DX2                !
 ! D61   D(26,9,10,12)        -144.0596         estimate D2E/DX2                !
 ! D62   D(9,10,11,27)         179.074          estimate D2E/DX2                !
 ! D63   D(12,10,11,27)          1.1046         estimate D2E/DX2                !
 ! D64   D(6,13,14,29)          54.5221         estimate D2E/DX2                !
 ! D65   D(6,13,14,30)         174.3373         estimate D2E/DX2                !
 ! D66   D(6,13,14,31)         -66.3729         estimate D2E/DX2                !
 ! D67   D(15,13,14,29)        -58.6853         estimate D2E/DX2                !
 ! D68   D(15,13,14,30)         61.13           estimate D2E/DX2                !
 ! D69   D(15,13,14,31)       -179.5803         estimate D2E/DX2                !
 ! D70   D(28,13,14,29)       -178.231          estimate D2E/DX2                !
 ! D71   D(28,13,14,30)        -58.4157         estimate D2E/DX2                !
 ! D72   D(28,13,14,31)         60.874          estimate D2E/DX2                !
 ! D73   D(6,13,15,4)          -14.8667         estimate D2E/DX2                !
 ! D74   D(14,13,15,4)         108.9022         estimate D2E/DX2                !
 ! D75   D(28,13,15,4)        -131.705          estimate D2E/DX2                !
 ! D76   D(3,16,17,18)        -179.9888         estimate D2E/DX2                !
 ! D77   D(3,16,17,19)           0.0077         estimate D2E/DX2                !
 ! D78   D(32,16,17,18)         -0.0098         estimate D2E/DX2                !
 ! D79   D(32,16,17,19)        179.9867         estimate D2E/DX2                !
 ! D80   D(16,17,19,20)          0.007          estimate D2E/DX2                !
 ! D81   D(16,17,19,33)        179.9972         estimate D2E/DX2                !
 ! D82   D(18,17,19,20)       -179.9965         estimate D2E/DX2                !
 ! D83   D(18,17,19,33)         -0.0063         estimate D2E/DX2                !
 ! D84   D(17,19,20,2)          -0.0011         estimate D2E/DX2                !
 ! D85   D(17,19,20,34)        179.9867         estimate D2E/DX2                !
 ! D86   D(33,19,20,2)        -179.9913         estimate D2E/DX2                !
 ! D87   D(33,19,20,34)         -0.0035         estimate D2E/DX2                !
 --------------------------------------------------------------------------------
 Trust Radius=3.00D-01 FncErr=1.00D-07 GrdErr=1.00D-06
 Number of steps in this run=    191 maximum allowed number of steps=    204.
 GradGradGradGradGradGradGradGradGradGradGradGradGradGradGradGradGradGrad

                          Input orientation:                          
 ---------------------------------------------------------------------
 Center     Atomic      Atomic             Coordinates (Angstroms)
 Number     Number       Type             X           Y           Z
 ---------------------------------------------------------------------
      1          8           0       -0.300857    0.549606   -0.446957
      2          6           0       -1.226851    1.535517   -0.257307
      3          6           0       -1.059175    2.847864   -0.783941
      4          6           0        0.124944    3.269008   -1.583578
      5          7           0        1.087169    2.498310   -1.881200
      6          6           0        2.082597    3.259479   -2.588457
      7          6           0        2.698517    2.439249   -3.757759
      8          8           0        3.746204    3.175936   -4.366153
      9          6           0        3.207030    1.025394   -3.368522
     10          6           0        4.232856    0.973435   -2.230889
     11          8           0        4.306623   -0.261843   -1.670356
     12          8           0        4.931463    1.927049   -1.895635
     13          6           0        1.366175    4.579908   -2.947744
     14          6           0        0.824494    4.726812   -4.381497
     15          8           0        0.255360    4.535899   -2.075290
     16          6           0       -2.060629    3.815425   -0.544651
     17          6           0       -3.208122    3.490620    0.201910
     18         17           0       -4.419216    4.686309    0.482514
     19          6           0       -3.368359    2.192557    0.719165
     20          6           0       -2.379064    1.218527    0.489156
     21          1           0        0.427291    0.891557   -0.962778
     22          1           0        2.872892    3.507266   -1.877216
     23          1           0        1.934068    2.289020   -4.520269
     24          1           0        4.460670    3.235398   -3.742437
     25          1           0        3.642945    0.539340   -4.241501
     26          1           0        2.355147    0.408231   -3.080526
     27          1           0        4.956458   -0.261534   -0.984592
     28          1           0        1.997333    5.435405   -2.703619
     29          1           0        0.163227    3.902103   -4.647811
     30          1           0        0.256613    5.651304   -4.484923
     31          1           0        1.635324    4.759719   -5.109533
     32          1           0       -1.956997    4.818151   -0.933253
     33          1           0       -4.249581    1.944127    1.292212
     34          1           0       -2.504257    0.222106    0.887692
 ---------------------------------------------------------------------
                    Distance matrix (angstroms):
                    1          2          3          4          5
     1  O    0.000000
     2  C    1.365816   0.000000
     3  C    2.443480   1.423978   0.000000
     4  C    2.977979   2.567360   1.489604   0.000000
     5  N    2.789465   2.986417   2.435766   1.268239   0.000000
     6  C    4.196461   4.399858   3.646428   2.200518   1.438912
     7  C    4.850609   5.336517   4.809450   3.469703   2.474147
     8  O    6.215819   6.656190   6.002628   4.567812   3.701977
     9  C    4.589901   5.440513   5.310552   4.209404   2.979164
    10  C    4.890460   5.832612   5.797649   4.750117   3.513243
    11  O    4.835703   5.987198   6.264806   5.473653   4.245914
    12  O    5.601178   6.384532   6.162103   5.000086   3.886534
    13  C    5.027551   4.819808   3.682980   2.262755   2.355506
    14  C    5.847741   5.603688   4.474490   3.231550   3.359569
    15  O    4.341817   3.808452   2.499009   1.365211   2.209377
    16  C    3.711053   2.444531   1.412920   2.480861   3.664667
    17  C    4.186022   2.821124   2.450104   3.787665   4.875813
    18  Cl   5.910762   4.545989   4.034063   5.189111   6.379244
    19  C    3.669972   2.443615   2.832152   4.320247   5.167892
    20  C    2.375438   1.409001   2.453084   3.843274   4.389898
    21  H    0.955616   1.910120   2.463473   2.475698   1.964839
    22  H    4.567940   4.829057   4.134152   2.773844   2.051052
    23  H    4.961081   5.360226   4.819954   3.585730   2.779519
    24  H    6.383244   6.883576   6.274677   4.843586   3.922756
    25  H    5.472864   6.370328   6.276459   5.185747   3.992565
    26  H    3.742997   4.698090   4.783692   3.924118   2.722973
    27  H    5.346621   6.480096   6.774692   6.013904   4.836532
    28  H    5.851943   5.620403   4.441033   3.074672   3.182970
    29  H    5.394607   5.177796   4.187503   3.129185   3.237042
    30  H    6.530181   6.083840   4.825748   3.756391   4.172597
    31  H    6.573695   6.490888   5.443001   4.115316   3.979520
    32  H    4.604320   3.430117   2.170348   2.675303   3.942995
    33  H    4.534514   3.421238   3.912268   5.400180   6.233664
    34  H    2.596828   2.160518   3.431796   4.722657   5.074072
                    6          7          8          9         10
     6  C    0.000000
     7  C    1.555443   0.000000
     8  O    2.436138   1.417921   0.000000
     9  C    2.619921   1.552120   2.431215   0.000000
    10  C    3.158713   2.614219   3.105993   1.532719   0.000000
    11  O    4.264846   3.773480   4.404511   2.397885   1.358510
    12  O    3.220467   2.952271   3.011315   2.440501   1.228750
    13  C    1.544630   2.648335   3.106052   4.024968   4.662444
    14  C    2.636452   3.022244   3.307845   4.516978   5.507258
    15  O    2.287222   3.632583   4.391303   4.765338   5.341894
    16  C    4.653229   5.904862   6.980840   6.595965   7.108323
    17  C    5.985924   7.188376   8.326396   7.744643   8.223313
    18  Cl   7.330776   8.584365   9.615866   9.294751   9.798282
    19  C    6.464643   7.543917   8.800256   7.829891   8.244243
    20  C    5.791684   6.731142   8.057567   6.791423   7.153754
    21  H    3.315106   3.919915   5.274138   3.678650   4.012123
    22  H    1.091709   2.169679   2.658432   2.914675   2.897393
    23  H    2.166968   1.090125   2.023415   2.131597   3.500921
    24  H    2.643384   1.933720   0.950273   2.568179   2.730046
    25  H    3.544911   2.176144   2.641560   1.090121   2.139858
    26  H    2.906206   2.168313   3.353814   1.090659   2.137084
    27  H    4.819647   4.481404   4.971506   3.224873   1.897895
    28  H    2.180639   3.252664   3.305718   4.621002   5.013004
    29  H    2.887540   3.059384   3.666657   4.379129   5.566012
    30  H    3.556913   4.099873   4.280047   5.599139   6.540156
    31  H    2.967591   2.888296   2.741678   4.409826   5.419383
    32  H    4.635459   5.942291   6.856251   6.854394   7.401350
    33  H    7.542295   8.603686   9.872539   8.841242   9.236137
    34  H    6.507571   7.318797   8.683102   7.167945   7.461818
                   11         12         13         14         15
    11  O    0.000000
    12  O    2.287449   0.000000
    13  C    5.806936   4.566823   0.000000
    14  C    6.660494   5.557461   1.539690   0.000000
    15  O    6.292458   5.357641   1.413161   2.383055   0.000000
    16  C    7.644163   7.367528   4.254677   4.886302   2.868056
    17  C    8.605681   8.549696   5.659599   6.228787   4.274805
    18  Cl  10.259597  10.035154   6.726718   7.152394   5.330727
    19  C    8.404715   8.706016   6.446819   7.072427   5.141164
    20  C    7.180070   7.722243   6.094094   6.803977   4.951922
    21  H    4.108554   4.714873   4.292497   5.153115   3.814246
    22  H    4.037890   2.595215   2.137004   3.457550   2.819360
    23  H    4.500880   4.000513   2.836107   2.682022   3.720813
    24  H    4.067917   2.311731   3.466287   3.981770   4.706943
    25  H    2.773653   3.014814   4.814943   5.049573   5.669276
    26  H    2.499167   3.216859   4.289357   4.762937   4.738908
    27  H    0.944753   2.370764   6.339058   7.314075   6.804800
    28  H    6.233706   4.644407   1.090794   2.166317   2.058732
    29  H    6.585698   5.849050   2.190144   1.090111   2.651047
    30  H    7.699979   6.513732   2.177599   1.089895   2.655270
    31  H    6.646793   5.405339   2.185888   1.090213   3.340812
    32  H    8.098308   7.532299   3.893380   4.431187   2.505681
    33  H    9.319428   9.718757   7.514072   8.104354   6.192887
    34  H    7.291495   8.120571   6.977195   7.690079   5.916381
                   16         17         18         19         20
    16  C    0.000000
    17  C    1.406980   0.000000
    18  Cl   2.715960   1.724865   0.000000
    19  C    2.437435   1.406484   2.716450   0.000000
    20  C    2.813190   2.435622   4.023404   1.407247   0.000000
    21  H    3.861810   4.618209   6.322788   4.350689   3.176578
    22  H    5.119602   6.426646   7.754567   6.886426   6.198474
    23  H    5.838926   7.084133   8.434397   7.454979   6.696522
    24  H    7.286262   8.627478   9.940208   9.071224   8.291930
    25  H    7.545210   8.682803  10.223116   8.746412   7.687978
    26  H    6.126884   7.157197   8.768649   7.097886   5.984310
    27  H    8.127401   9.063488  10.702187   8.844655   7.627083
    28  H    4.873657   6.270650   7.203103   7.142980   6.865036
    29  H    4.667866   5.920735   6.923438   6.648239   6.328764
    30  H    4.926033   6.216056   6.889849   7.223980   7.165038
    31  H    5.948942   7.299384   8.242198   8.099437   7.746010
    32  H    1.080375   2.148545   2.843291   3.408251   3.893415
    33  H    3.415748   2.159869   2.864254   1.080117   2.161071
    34  H    3.893630   3.413049   4.874458   2.158182   1.080444
                   21         22         23         24         25
    21  H    0.000000
    22  H    3.695821   0.000000
    23  H    4.108409   3.057980   0.000000
    24  H    5.430308   2.464549   2.807912   0.000000
    25  H    4.605921   3.871874   2.461575   2.861200   0.000000
    26  H    2.904323   3.364526   2.405730   3.586673   1.738815
    27  H    4.673698   4.397940   5.304826   4.481077   3.601968
    28  H    5.112936   2.273162   3.633725   3.462254   5.389302
    29  H    4.765772   3.895430   2.398788   4.442096   4.856099
    30  H    5.923667   4.271060   3.757667   4.905301   6.136666
    31  H    5.798068   3.680773   2.557505   3.489282   4.753485
    32  H    4.593892   5.092869   5.865456   7.182136   7.785376
    33  H    5.297737   7.950994   8.493609  10.143153   9.741015
    34  H    3.530776   6.881186   7.294992   8.889782   8.012325
                   26         27         28         29         30
    26  H    0.000000
    27  H    3.407102   0.000000
    28  H    5.053966   6.645795   0.000000
    29  H    4.412260   7.330083   3.081370   0.000000
    30  H    5.819449   8.324813   2.499952   1.759249   0.000000
    31  H    4.854942   7.297811   2.525079   1.765152   1.756675
    32  H    6.530908   8.579143   4.376291   4.374064   4.267150
    33  H    8.068596   9.736526   8.196318   7.654438   8.211226
    34  H    6.276560   7.707245   7.767903   7.162377   8.121797
                   31         32         33         34
    31  H    0.000000
    32  H    5.509038   0.000000
    33  H    9.140132   4.297517   0.000000
    34  H    8.584449   4.973828   2.484985   0.000000
 Stoichiometry    C13H14ClNO5
 Framework group  C1[X(C13H14ClNO5)]
 Deg. of freedom    96
 Full point group                 C1      NOp   1
 Largest Abelian subgroup         C1      NOp   1
 Largest concise Abelian subgroup C1      NOp   1
                         Standard orientation:                         
 ---------------------------------------------------------------------
 Center     Atomic      Atomic             Coordinates (Angstroms)
 Number     Number       Type             X           Y           Z
 ---------------------------------------------------------------------
      1          8           0       -0.632363   -2.422674   -0.539657
      2          6           0       -1.734918   -1.645355   -0.326112
      3          6           0       -1.638647   -0.265819    0.013481
      4          6           0       -0.344657    0.456192    0.165834
      5          7           0        0.790243   -0.083773   -0.004076
      6          6           0        1.809424    0.885114    0.300879
      7          6           0        3.000036    0.788220   -0.695342
      8          8           0        4.030588    1.680814   -0.305804
      9          6           0        3.582598   -0.638267   -0.881979
     10          6           0        4.044820   -1.344494    0.397404
     11          8           0        4.134176   -2.689723    0.230290
     12          8           0        4.336902   -0.756449    1.436017
     13          6           0        1.048498    2.227571    0.369293
     14          6           0        1.118539    3.147386   -0.863461
     15          8           0       -0.286516    1.780638    0.491816
     16          6           0       -2.824855    0.473349    0.220570
     17          6           0       -4.084259   -0.140926    0.093451
     18         17           0       -5.520422    0.779240    0.350137
     19          6           0       -4.172999   -1.503785   -0.242611
     20          6           0       -3.000077   -2.252747   -0.451541
     21          1           0        0.156254   -1.895841   -0.422477
     22          1           0        2.174062    0.672108    1.307605
     23          1           0        2.659399    1.109578   -1.679754
     24          1           0        4.401555    1.359881    0.508078
     25          1           0        4.424475   -0.602902   -1.573610
     26          1           0        2.832313   -1.268633   -1.360777
     27          1           0        4.434399   -3.090404    1.031463
     28          1           0        1.337482    2.785219    1.261117
     29          1           0        0.805483    2.629130   -1.769965
     30          1           0        0.466558    4.011388   -0.735822
     31          1           0        2.129910    3.523128   -1.020017
     32          1           0       -2.778708    1.521297    0.479195
     33          1           0       -5.140256   -1.974524   -0.339937
     34          1           0       -3.070750   -3.299586   -0.709404
 ---------------------------------------------------------------------
 Rotational constants (GHZ):      0.5851462      0.1506938      0.1257873
 Standard basis: 6-31+G(d,p) (6D, 7F)
 There are   454 symmetry adapted basis functions of A   symmetry.
 Integral buffers will be    131072 words long.
 Raffenetti 2 integral format.
 Two-electron integral symmetry is turned on.
   454 basis functions,   762 primitive gaussians,   454 cartesian basis functions
    78 alpha electrons       78 beta electrons
       nuclear repulsion energy      1677.3559885361 Hartrees.
 NAtoms=   34 NActive=   34 NUniq=   34 SFac= 1.00D+00 NAtFMM=   50 NAOKFM=F Big=F
 Using the following non-standard input for PCM:
 radii=UA0
 --- end of non-standard input.
 ------------------------------------------------------------------------------
 United Atom Topological Model (UA0  parameters set).
  Nord Group  Hybr  Charge Alpha Radius          Bonded to
    1   OH    *     0.00   1.10  1.850   C2   [s]
    2   C     *     0.00   1.10  1.925   O1   [s]  C3   [s]  C20  [s]
    3   C     *     0.00   1.10  1.925   C2   [s]  C4   [s]  C16  [s]
    4   C     *     0.00   1.10  1.925   C3   [s]  N5   [d]  O15  [s]
    5   N     *     0.00   1.10  1.830   C4   [d]  C6   [s]
    6   CH    *     0.00   1.10  2.125   N5   [s]  C7   [s]  C13  [s]
    7   CH    *     0.00   1.10  2.125   C6   [s]  O8   [s]  C9   [s]
    8   OH    *     0.00   1.10  1.850   C7   [s]
    9   CH2   *     0.00   1.10  2.325   C7   [s]  C10  [s]
   10   C     *     0.00   1.10  1.925   C9   [s]  O11  [s]  O12  [d]
   11   OH    *     0.00   1.10  1.850   C10  [s]
   12   O     *     0.00   1.10  1.750   C10  [d]
   13   CH    *     0.00   1.10  2.125   C6   [s]  C14  [s]  O15  [s]
   14   CH3   *     0.00   1.10  2.525   C13  [s]
   15   O     *     0.00   1.10  1.750   C4   [s]  C13  [s]
   16   CH    *     0.00   1.10  2.125   C3   [s]  C17  [s]
   17   C     *     0.00   1.10  1.925   C16  [s] Cl18  [s]  C19  [s]
   18  Cl     *     0.00   1.10  1.973   C17  [s]
   19   CH    *     0.00   1.10  2.125   C17  [s]  C20  [s]
   20   CH    *     0.00   1.10  2.125   C2   [s]  C19  [s]
 ------------------------------------------------------------------------------
 Polarizable Continuum Model (PCM)
 =================================
 Model                : PCM.
 Atomic radii         : UA0 (Simple United Atom Topological Model).
 Polarization charges : Total charges.
 Charge compensation  : None.
 Solution method      : Matrix inversion.
 Cavity type          : Scaled VdW (van der Waals Surface) (Alpha=1.100).
 Cavity algorithm     : GePol (No added spheres)
                        Default sphere list used, NSphG=   20.
                        Lebedev-Laikov grids with approx.  5.0 points / Ang**2.
                        Smoothing algorithm: Karplus/York (Gamma=1.0000).
                        Polarization charges: spherical gaussians, with
                                              point-specific exponents (IZeta= 3).
                        Self-potential: point-specific (ISelfS= 7).
                        Self-field    : sphere-specific E.n sum rule (ISelfD= 2).
 1st derivatives      : Analytical E(r).r(x)/FMM algorithm (CHGder, D1EAlg=3).
                        Cavity 1st derivative terms included.
 Solvent              : Methanol, Eps=  32.613000 Eps(inf)=   1.765709
 ------------------------------------------------------------------------------
 Spheres list:
 ISph  on   Nord    Re0     Alpha      Xe            Ye            Ze
    1   O      1    1.850   1.100     -0.632363     -2.422674     -0.539657
    2   C      2    1.925   1.100     -1.734918     -1.645355     -0.326112
    3   C      3    1.925   1.100     -1.638647     -0.265819      0.013481
    4   C      4    1.925   1.100     -0.344657      0.456192      0.165834
    5   N      5    1.830   1.100      0.790243     -0.083773     -0.004076
    6   C      6    2.125   1.100      1.809424      0.885114      0.300879
    7   C      7    2.125   1.100      3.000036      0.788220     -0.695342
    8   O      8    1.850   1.100      4.030588      1.680814     -0.305804
    9   C      9    2.325   1.100      3.582598     -0.638267     -0.881979
   10   C     10    1.925   1.100      4.044820     -1.344494      0.397404
   11   O     11    1.850   1.100      4.134176     -2.689723      0.230290
   12   O     12    1.750   1.100      4.336902     -0.756449      1.436017
   13   C     13    2.125   1.100      1.048498      2.227571      0.369293
   14   C     14    2.525   1.100      1.118539      3.147386     -0.863461
   15   O     15    1.750   1.100     -0.286516      1.780638      0.491816
   16   C     16    2.125   1.100     -2.824855      0.473349      0.220570
   17   C     17    1.925   1.100     -4.084259     -0.140926      0.093451
   18  Cl     18    1.973   1.100     -5.520422      0.779240      0.350137
   19   C     19    2.125   1.100     -4.172999     -1.503785     -0.242611
   20   C     20    2.125   1.100     -3.000077     -2.252747     -0.451541
 ------------------------------------------------------------------------------
 One-electron integrals computed using PRISM.
 NBasis=   454 RedAO= T  NBF=   454
 NBsUse=   453 1.00D-06 NBFU=   453
 Harris functional with IExCor= 1009 diagonalized for initial guess.
 ExpMin= 4.38D-02 ExpMax= 2.52D+04 ExpMxC= 3.78D+03 IAcc=3 IRadAn=         5 AccDes= 0.00D+00
 HarFok:  IExCor= 1009 AccDes= 0.00D+00 IRadAn=         5 IDoV= 1
 ScaDFX=  1.000000  1.000000  1.000000  1.000000
 FoFCou: FMM=F IPFlag=           0 FMFlag=      100000 FMFlg1=           0
         NFxFlg=           0 DoJE=T BraDBF=F KetDBF=T FulRan=T
         Omega=  0.000000  0.000000  1.000000  0.000000  0.000000 ICntrl=     500 IOpCl=  0
         NMat0=    1 NMatS0=    1 NMatT0=    0 NMatD0=    1 NMtDS0=    0 NMtDT0=    0
         I1Cent=           4 NGrid=           0.
 Petite list used in FoFCou.
 Initial guess orbital symmetries:
       Occupied  (A) (A) (A) (A) (A) (A) (A) (A) (A) (A) (A) (A)
                 (A) (A) (A) (A) (A) (A) (A) (A) (A) (A) (A) (A)
                 (A) (A) (A) (A) (A) (A) (A) (A) (A) (A) (A) (A)
                 (A) (A) (A) (A) (A) (A) (A) (A) (A) (A) (A) (A)
                 (A) (A) (A) (A) (A) (A) (A) (A) (A) (A) (A) (A)
                 (A) (A) (A) (A) (A) (A) (A) (A) (A) (A) (A) (A)
                 (A) (A) (A) (A) (A) (A)
       Virtual   (A) (A) (A) (A) (A) (A) (A) (A) (A) (A) (A) (A)
                 (A) (A) (A) (A) (A) (A) (A) (A) (A) (A) (A) (A)
                 (A) (A) (A) (A) (A) (A) (A) (A) (A) (A) (A) (A)
                 (A) (A) (A) (A) (A) (A) (A) (A) (A) (A) (A) (A)
                 (A) (A) (A) (A) (A) (A) (A) (A) (A) (A) (A) (A)
                 (A) (A) (A) (A) (A) (A) (A) (A) (A) (A) (A) (A)
                 (A) (A) (A) (A) (A) (A) (A) (A) (A) (A) (A) (A)
                 (A) (A) (A) (A) (A) (A) (A) (A) (A) (A) (A) (A)
                 (A) (A) (A) (A) (A) (A) (A) (A) (A) (A) (A) (A)
                 (A) (A) (A) (A) (A) (A) (A) (A) (A) (A) (A) (A)
                 (A) (A) (A) (A) (A) (A) (A) (A) (A) (A) (A) (A)
                 (A) (A) (A) (A) (A) (A) (A) (A) (A) (A) (A) (A)
                 (A) (A) (A) (A) (A) (A) (A) (A) (A) (A) (A) (A)
                 (A) (A) (A) (A) (A) (A) (A) (A) (A) (A) (A) (A)
                 (A) (A) (A) (A) (A) (A) (A) (A) (A) (A) (A) (A)
                 (A) (A) (A) (A) (A) (A) (A) (A) (A) (A) (A) (A)
                 (A) (A) (A) (A) (A) (A) (A) (A) (A) (A) (A) (A)
                 (A) (A) (A) (A) (A) (A) (A) (A) (A) (A) (A) (A)
                 (A) (A) (A) (A) (A) (A) (A) (A) (A) (A) (A) (A)
                 (A) (A) (A) (A) (A) (A) (A) (A) (A) (A) (A) (A)
                 (A) (A) (A) (A) (A) (A) (A) (A) (A) (A) (A) (A)
                 (A) (A) (A) (A) (A) (A) (A) (A) (A) (A) (A) (A)
                 (A) (A) (A) (A) (A) (A) (A) (A) (A) (A) (A) (A)
                 (A) (A) (A) (A) (A) (A) (A) (A) (A) (A) (A) (A)
                 (A) (A) (A) (A) (A) (A) (A) (A) (A) (A) (A) (A)
                 (A) (A) (A) (A) (A) (A) (A) (A) (A) (A) (A) (A)
                 (A) (A) (A) (A) (A) (A) (A) (A) (A) (A) (A) (A)
                 (A) (A) (A) (A) (A) (A) (A) (A) (A) (A) (A) (A)
                 (A) (A) (A) (A) (A) (A) (A) (A) (A) (A) (A) (A)
                 (A) (A) (A) (A) (A) (A) (A) (A) (A) (A) (A) (A)
                 (A) (A) (A) (A) (A) (A) (A) (A) (A) (A) (A) (A)
                 (A) (A) (A)
 The electronic state of the initial guess is 1-A.
 Requested convergence on RMS density matrix=1.00D-08 within 128 cycles.
 Requested convergence on MAX density matrix=1.00D-06.
 Requested convergence on             energy=1.00D-06.
 No special actions if energy rises.
 Error on total polarization charges =  0.01469
 SCF Done:  E(RM062X) =  -1394.56555279     A.U. after   16 cycles
             Convg  =    0.3963D-08             -V/T =  2.0067

 **********************************************************************

            Population analysis using the SCF density.

 **********************************************************************

 Orbital symmetries:
       Occupied  (A) (A) (A) (A) (A) (A) (A) (A) (A) (A) (A) (A)
                 (A) (A) (A) (A) (A) (A) (A) (A) (A) (A) (A) (A)
                 (A) (A) (A) (A) (A) (A) (A) (A) (A) (A) (A) (A)
                 (A) (A) (A) (A) (A) (A) (A) (A) (A) (A) (A) (A)
                 (A) (A) (A) (A) (A) (A) (A) (A) (A) (A) (A) (A)
                 (A) (A) (A) (A) (A) (A) (A) (A) (A) (A) (A) (A)
                 (A) (A) (A) (A) (A) (A)
       Virtual   (A) (A) (A) (A) (A) (A) (A) (A) (A) (A) (A) (A)
                 (A) (A) (A) (A) (A) (A) (A) (A) (A) (A) (A) (A)
                 (A) (A) (A) (A) (A) (A) (A) (A) (A) (A) (A) (A)
                 (A) (A) (A) (A) (A) (A) (A) (A) (A) (A) (A) (A)
                 (A) (A) (A) (A) (A) (A) (A) (A) (A) (A) (A) (A)
                 (A) (A) (A) (A) (A) (A) (A) (A) (A) (A) (A) (A)
                 (A) (A) (A) (A) (A) (A) (A) (A) (A) (A) (A) (A)
                 (A) (A) (A) (A) (A) (A) (A) (A) (A) (A) (A) (A)
                 (A) (A) (A) (A) (A) (A) (A) (A) (A) (A) (A) (A)
                 (A) (A) (A) (A) (A) (A) (A) (A) (A) (A) (A) (A)
                 (A) (A) (A) (A) (A) (A) (A) (A) (A) (A) (A) (A)
                 (A) (A) (A) (A) (A) (A) (A) (A) (A) (A) (A) (A)
                 (A) (A) (A) (A) (A) (A) (A) (A) (A) (A) (A) (A)
                 (A) (A) (A) (A) (A) (A) (A) (A) (A) (A) (A) (A)
                 (A) (A) (A) (A) (A) (A) (A) (A) (A) (A) (A) (A)
                 (A) (A) (A) (A) (A) (A) (A) (A) (A) (A) (A) (A)
                 (A) (A) (A) (A) (A) (A) (A) (A) (A) (A) (A) (A)
                 (A) (A) (A) (A) (A) (A) (A) (A) (A) (A) (A) (A)
                 (A) (A) (A) (A) (A) (A) (A) (A) (A) (A) (A) (A)
                 (A) (A) (A) (A) (A) (A) (A) (A) (A) (A) (A) (A)
                 (A) (A) (A) (A) (A) (A) (A) (A) (A) (A) (A) (A)
                 (A) (A) (A) (A) (A) (A) (A) (A) (A) (A) (A) (A)
                 (A) (A) (A) (A) (A) (A) (A) (A) (A) (A) (A) (A)
                 (A) (A) (A) (A) (A) (A) (A) (A) (A) (A) (A) (A)
                 (A) (A) (A) (A) (A) (A) (A) (A) (A) (A) (A) (A)
                 (A) (A) (A) (A) (A) (A) (A) (A) (A) (A) (A) (A)
                 (A) (A) (A) (A) (A) (A) (A) (A) (A) (A) (A) (A)
                 (A) (A) (A) (A) (A) (A) (A) (A) (A) (A) (A) (A)
                 (A) (A) (A) (A) (A) (A) (A) (A) (A) (A) (A) (A)
                 (A) (A) (A) (A) (A) (A) (A) (A) (A) (A) (A) (A)
                 (A) (A) (A) (A) (A) (A) (A) (A) (A) (A) (A) (A)
                 (A) (A) (A)
 The electronic state is 1-A.
 Alpha  occ. eigenvalues -- -102.68245 -19.70426 -19.69684 -19.68149 -19.66320
 Alpha  occ. eigenvalues --  -19.65239 -14.77005 -10.71461 -10.67370 -10.64832
 Alpha  occ. eigenvalues --  -10.62603 -10.62148 -10.62024 -10.59882 -10.59271
 Alpha  occ. eigenvalues --  -10.58778 -10.58559 -10.57532 -10.57336 -10.54517
 Alpha  occ. eigenvalues --   -9.82928  -7.55329  -7.54669  -7.54659  -1.24496
 Alpha  occ. eigenvalues --   -1.24189  -1.19630  -1.16379  -1.15281  -1.04326
 Alpha  occ. eigenvalues --   -1.00845  -0.95333  -0.91787  -0.88409  -0.86694
 Alpha  occ. eigenvalues --   -0.83480  -0.80921  -0.77291  -0.73616  -0.72234
 Alpha  occ. eigenvalues --   -0.69821  -0.68527  -0.67095  -0.63300  -0.61660
 Alpha  occ. eigenvalues --   -0.60001  -0.59302  -0.58107  -0.57778  -0.56035
 Alpha  occ. eigenvalues --   -0.55185  -0.54814  -0.53775  -0.52979  -0.52087
 Alpha  occ. eigenvalues --   -0.51051  -0.50794  -0.48955  -0.48426  -0.48041
 Alpha  occ. eigenvalues --   -0.46838  -0.46201  -0.46074  -0.45444  -0.45301
 Alpha  occ. eigenvalues --   -0.44539  -0.43595  -0.41725  -0.41347  -0.40919
 Alpha  occ. eigenvalues --   -0.38988  -0.38856  -0.37361  -0.36929  -0.35978
 Alpha  occ. eigenvalues --   -0.34116  -0.31428  -0.28578
 Alpha virt. eigenvalues --   -0.03100   0.00560   0.00701   0.01614   0.01827
 Alpha virt. eigenvalues --    0.02396   0.02621   0.03295   0.03769   0.04230
 Alpha virt. eigenvalues --    0.04576   0.04932   0.05391   0.05980   0.06462
 Alpha virt. eigenvalues --    0.06663   0.06780   0.07141   0.07831   0.08028
 Alpha virt. eigenvalues --    0.08209   0.08563   0.09039   0.09951   0.10368
 Alpha virt. eigenvalues --    0.10438   0.10952   0.11200   0.11990   0.12492
 Alpha virt. eigenvalues --    0.13128   0.13364   0.13803   0.14136   0.14430
 Alpha virt. eigenvalues --    0.15002   0.15308   0.15759   0.16280   0.16352
 Alpha virt. eigenvalues --    0.16958   0.17264   0.17490   0.17911   0.18132
 Alpha virt. eigenvalues --    0.18728   0.19313   0.19842   0.19949   0.20169
 Alpha virt. eigenvalues --    0.20521   0.21254   0.21429   0.21750   0.22308
 Alpha virt. eigenvalues --    0.22531   0.22774   0.23077   0.23555   0.24045
 Alpha virt. eigenvalues --    0.24489   0.24907   0.25111   0.25513   0.25603
 Alpha virt. eigenvalues --    0.26134   0.26433   0.26812   0.27218   0.27408
 Alpha virt. eigenvalues --    0.27708   0.28229   0.28523   0.28925   0.29176
 Alpha virt. eigenvalues --    0.29672   0.30052   0.30318   0.31046   0.31115
 Alpha virt. eigenvalues --    0.31493   0.32161   0.32238   0.32483   0.32612
 Alpha virt. eigenvalues --    0.33281   0.33934   0.34630   0.35170   0.35410
 Alpha virt. eigenvalues --    0.35786   0.36522   0.36822   0.37368   0.38109
 Alpha virt. eigenvalues --    0.38942   0.39181   0.39370   0.39911   0.40479
 Alpha virt. eigenvalues --    0.41448   0.42282   0.42696   0.43080   0.43196
 Alpha virt. eigenvalues --    0.44172   0.45376   0.45856   0.46231   0.47975
 Alpha virt. eigenvalues --    0.49499   0.49720   0.50903   0.52264   0.54040
 Alpha virt. eigenvalues --    0.56304   0.57249   0.59318   0.60831   0.64451
 Alpha virt. eigenvalues --    0.66987   0.68304   0.68619   0.69566   0.70756
 Alpha virt. eigenvalues --    0.71322   0.72195   0.72929   0.74311   0.74514
 Alpha virt. eigenvalues --    0.75073   0.75562   0.76112   0.76233   0.78115
 Alpha virt. eigenvalues --    0.78701   0.79738   0.80150   0.81204   0.81543
 Alpha virt. eigenvalues --    0.82375   0.82879   0.84258   0.85224   0.86103
 Alpha virt. eigenvalues --    0.87372   0.88258   0.89293   0.91606   0.92450
 Alpha virt. eigenvalues --    0.93177   0.94071   0.94540   0.96593   0.97531
 Alpha virt. eigenvalues --    0.98555   0.98965   1.00860   1.02209   1.02579
 Alpha virt. eigenvalues --    1.03868   1.03935   1.05478   1.06342   1.06986
 Alpha virt. eigenvalues --    1.08258   1.09765   1.10796   1.11237   1.12557
 Alpha virt. eigenvalues --    1.13615   1.14062   1.14434   1.15683   1.15977
 Alpha virt. eigenvalues --    1.16490   1.17857   1.19849   1.19972   1.20827
 Alpha virt. eigenvalues --    1.22301   1.24280   1.24963   1.25449   1.26034
 Alpha virt. eigenvalues --    1.27281   1.27697   1.28629   1.28709   1.30046
 Alpha virt. eigenvalues --    1.31875   1.32618   1.33887   1.34886   1.35976
 Alpha virt. eigenvalues --    1.36960   1.37938   1.38571   1.39817   1.40352
 Alpha virt. eigenvalues --    1.40506   1.41517   1.41908   1.42353   1.43543
 Alpha virt. eigenvalues --    1.44020   1.44269   1.44740   1.45410   1.46831
 Alpha virt. eigenvalues --    1.47743   1.48657   1.51700   1.52392   1.53136
 Alpha virt. eigenvalues --    1.55717   1.56585   1.57477   1.58301   1.59151
 Alpha virt. eigenvalues --    1.60161   1.63055   1.64271   1.65251   1.66494
 Alpha virt. eigenvalues --    1.66563   1.70516   1.72468   1.73838   1.74893
 Alpha virt. eigenvalues --    1.76271   1.78013   1.79050   1.79336   1.80375
 Alpha virt. eigenvalues --    1.82168   1.82241   1.83600   1.84280   1.85602
 Alpha virt. eigenvalues --    1.87443   1.89333   1.91413   1.93189   1.94603
 Alpha virt. eigenvalues --    1.95514   1.95690   1.96459   1.97147   1.98864
 Alpha virt. eigenvalues --    1.98937   2.00365   2.01063   2.02462   2.02886
 Alpha virt. eigenvalues --    2.04506   2.06010   2.08134   2.08399   2.09471
 Alpha virt. eigenvalues --    2.10747   2.10999   2.11668   2.12906   2.14603
 Alpha virt. eigenvalues --    2.16563   2.18325   2.19528   2.20229   2.22133
 Alpha virt. eigenvalues --    2.24631   2.24940   2.26021   2.26362   2.28611
 Alpha virt. eigenvalues --    2.28866   2.32226   2.33903   2.37353   2.37537
 Alpha virt. eigenvalues --    2.40263   2.40844   2.41445   2.42397   2.43678
 Alpha virt. eigenvalues --    2.46247   2.46966   2.47378   2.47979   2.49463
 Alpha virt. eigenvalues --    2.49695   2.50299   2.52234   2.54347   2.55257
 Alpha virt. eigenvalues --    2.56558   2.57207   2.57579   2.58212   2.59557
 Alpha virt. eigenvalues --    2.60243   2.61250   2.62075   2.64356   2.67178
 Alpha virt. eigenvalues --    2.67455   2.68591   2.69698   2.70294   2.71276
 Alpha virt. eigenvalues --    2.71934   2.73057   2.74830   2.75552   2.76111
 Alpha virt. eigenvalues --    2.77400   2.79925   2.80917   2.82771   2.83155
 Alpha virt. eigenvalues --    2.84339   2.87695   2.88388   2.90753   2.91937
 Alpha virt. eigenvalues --    2.93908   2.94661   2.98961   3.02190   3.02804
 Alpha virt. eigenvalues --    3.04648   3.05363   3.06859   3.09104   3.11854
 Alpha virt. eigenvalues --    3.14138   3.14966   3.21262   3.23108   3.25042
 Alpha virt. eigenvalues --    3.27087   3.32556   3.35567   3.39270   3.40662
 Alpha virt. eigenvalues --    3.42134   3.46972   3.48342   3.50255   3.51160
 Alpha virt. eigenvalues --    3.54406   3.56573   3.64888   3.66125   3.77033
 Alpha virt. eigenvalues --    4.27019   4.28376   4.32146   4.32833   4.35836
 Alpha virt. eigenvalues --    4.37680   4.40648   4.43691   4.45301   4.47045
 Alpha virt. eigenvalues --    4.51132   4.53961   4.58767   4.62728   4.69361
 Alpha virt. eigenvalues --    4.70181   4.76099   4.80088   4.88864   4.96752
          Condensed to atoms (all electrons):
              1          2          3          4          5          6
     1  O    8.458108   0.377726   0.275731  -0.142489  -0.001627  -0.001387
     2  C    0.377726  15.227598  -4.129804   1.186238  -0.170649  -0.138153
     3  C    0.275731  -4.129804  13.956808  -2.000675  -0.270561   0.289361
     4  C   -0.142489   1.186238  -2.000675   8.762570   0.666046  -0.789473
     5  N   -0.001627  -0.170649  -0.270561   0.666046   7.322160  -0.411394
     6  C   -0.001387  -0.138153   0.289361  -0.789473  -0.411394  10.556018
     7  C   -0.014357   0.198148  -0.369818  -0.332234  -0.283223  -0.301210
     8  O    0.000066   0.000637   0.003316   0.066218   0.006169  -0.249591
     9  C    0.010401   0.038719  -0.087132   0.021465  -0.002544  -0.204112
    10  C    0.004303  -0.023554   0.073838   0.014144   0.053577  -0.005315
    11  O   -0.000491   0.000745  -0.004372   0.011646   0.004757  -0.022737
    12  O    0.000081   0.001086  -0.001145   0.005794   0.000109  -0.018052
    13  C   -0.011168   0.070152  -0.258278  -0.134144   0.293926  -2.284428
    14  C    0.000156  -0.067623   0.097546  -0.050376   0.039079  -0.183840
    15  O   -0.003573  -0.001985  -0.250875   0.339570  -0.142627  -0.102118
    16  C    0.188667  -3.513701   2.207329  -3.776009   0.100487  -0.353108
    17  C   -0.037049  -0.630254  -1.842016   1.078313   0.061217   0.110564
    18  Cl  -0.000309  -0.015439  -0.001627   0.009164   0.000444   0.001323
    19  C    0.050789   0.430364  -0.206217   0.161885  -0.010537  -0.023540
    20  C   -0.778041  -2.620213  -1.339924   0.224533   0.014509  -0.053474
    21  H    0.184648   0.049224  -0.138339   0.014906   0.065296   0.018464
    22  H    0.000181   0.008982  -0.007200   0.042741  -0.007767   0.305375
    23  H    0.000157   0.001220   0.006299   0.054198   0.035705  -0.040247
    24  H    0.000001  -0.000121   0.000427   0.016160   0.005022  -0.008096
    25  H   -0.000001  -0.000348   0.000698  -0.002823   0.000725   0.001825
    26  H   -0.000137   0.004185  -0.010548   0.022044   0.009373  -0.045369
    27  H    0.000007   0.000095  -0.000065  -0.000160   0.000146  -0.003280
    28  H    0.000004  -0.001388   0.003813   0.031494   0.005371  -0.040521
    29  H    0.000014  -0.002632   0.003846  -0.001597   0.009361  -0.015446
    30  H   -0.000002   0.001298   0.003797   0.004997  -0.003377   0.062816
    31  H   -0.000001  -0.000117  -0.001344  -0.010615  -0.009167   0.037582
    32  H   -0.000469   0.028193  -0.001280   0.065751   0.000160   0.004860
    33  H   -0.000418  -0.054927   0.007132  -0.009047   0.000064  -0.000056
    34  H   -0.003587   0.033110   0.014484  -0.003747   0.000441   0.000176
              7          8          9         10         11         12
     1  O   -0.014357   0.000066   0.010401   0.004303  -0.000491   0.000081
     2  C    0.198148   0.000637   0.038719  -0.023554   0.000745   0.001086
     3  C   -0.369818   0.003316  -0.087132   0.073838  -0.004372  -0.001145
     4  C   -0.332234   0.066218   0.021465   0.014144   0.011646   0.005794
     5  N   -0.283223   0.006169  -0.002544   0.053577   0.004757   0.000109
     6  C   -0.301210  -0.249591  -0.204112  -0.005315  -0.022737  -0.018052
     7  C    7.527775   0.245848  -0.257001  -0.348754   0.089294   0.054696
     8  O    0.245848   8.254796  -0.011245  -0.010749  -0.002206   0.004074
     9  C   -0.257001  -0.011245   6.436892   0.045324  -0.225769  -0.191979
    10  C   -0.348754  -0.010749   0.045324   5.179618   0.245910   0.490843
    11  O    0.089294  -0.002206  -0.225769   0.245910   8.248246  -0.129775
    12  O    0.054696   0.004074  -0.191979   0.490843  -0.129775   8.217293
    13  C   -0.077122   0.040692   0.158345  -0.195185  -0.003308   0.020955
    14  C   -0.251582  -0.057659  -0.045405   0.001465  -0.000337   0.005102
    15  O    0.036114   0.001464  -0.009218  -0.002132   0.000099  -0.000336
    16  C   -0.198432   0.000204  -0.005449   0.022741  -0.000237  -0.001070
    17  C    0.030500  -0.000432   0.000031  -0.002162   0.000034   0.000027
    18  Cl  -0.000149  -0.000001  -0.000016   0.000006   0.000000   0.000000
    19  C   -0.002386   0.000041   0.002088   0.001749   0.000050   0.000002
    20  C    0.002691  -0.000069  -0.001503  -0.015380  -0.000556   0.000331
    21  H   -0.006523  -0.000007   0.000000  -0.000300  -0.000146  -0.000021
    22  H   -0.120040   0.004026  -0.000757   0.008364  -0.000125  -0.000254
    23  H    0.265152  -0.043748  -0.014293   0.023984  -0.000590   0.000767
    24  H   -0.000435   0.272856  -0.037640   0.012236   0.000107   0.011247
    25  H    0.016883  -0.005963   0.335722  -0.006447   0.001120  -0.001730
    26  H   -0.083100   0.010437   0.440020  -0.045577   0.000348   0.009195
    27  H   -0.002866   0.000009   0.036080  -0.014405   0.249594   0.003854
    28  H   -0.005710  -0.001972   0.004764   0.000998  -0.000001   0.000009
    29  H   -0.033433  -0.000228   0.013920   0.000952   0.000000  -0.000014
    30  H   -0.001881   0.000163  -0.001868   0.000087   0.000000   0.000000
    31  H    0.027871   0.000274  -0.003003  -0.000691   0.000001   0.000009
    32  H    0.000176   0.000000   0.000003  -0.000010   0.000000   0.000000
    33  H   -0.000003   0.000000   0.000000   0.000000   0.000000   0.000000
    34  H   -0.000025   0.000000   0.000007   0.000005   0.000000   0.000000
             13         14         15         16         17         18
     1  O   -0.011168   0.000156  -0.003573   0.188667  -0.037049  -0.000309
     2  C    0.070152  -0.067623  -0.001985  -3.513701  -0.630254  -0.015439
     3  C   -0.258278   0.097546  -0.250875   2.207329  -1.842016  -0.001627
     4  C   -0.134144  -0.050376   0.339570  -3.776009   1.078313   0.009164
     5  N    0.293926   0.039079  -0.142627   0.100487   0.061217   0.000444
     6  C   -2.284428  -0.183840  -0.102118  -0.353108   0.110564   0.001323
     7  C   -0.077122  -0.251582   0.036114  -0.198432   0.030500  -0.000149
     8  O    0.040692  -0.057659   0.001464   0.000204  -0.000432  -0.000001
     9  C    0.158345  -0.045405  -0.009218  -0.005449   0.000031  -0.000016
    10  C   -0.195185   0.001465  -0.002132   0.022741  -0.002162   0.000006
    11  O   -0.003308  -0.000337   0.000099  -0.000237   0.000034   0.000000
    12  O    0.020955   0.005102  -0.000336  -0.001070   0.000027   0.000000
    13  C    8.561058  -0.045748   0.039780  -0.165810   0.026472  -0.000994
    14  C   -0.045748   5.775374  -0.107791   0.077735  -0.016496   0.000536
    15  O    0.039780  -0.107791   8.529703  -0.097951   0.095160  -0.000679
    16  C   -0.165810   0.077735  -0.097951  18.267484  -3.278726  -0.110805
    17  C    0.026472  -0.016496   0.095160  -3.278726   9.198909  -0.095360
    18  Cl  -0.000994   0.000536  -0.000679  -0.110805  -0.095360  17.027463
    19  C    0.000564  -0.004433  -0.001157  -1.517447   0.785596  -0.120964
    20  C    0.043513   0.002710   0.024554  -1.753690   0.643113   0.084167
    21  H   -0.006459   0.000102   0.002362  -0.035693   0.004856  -0.000001
    22  H    0.019023   0.022679   0.002644  -0.000599  -0.000589   0.000002
    23  H   -0.057009   0.038709  -0.002304   0.002495  -0.000464   0.000000
    24  H   -0.019458   0.010042  -0.000100   0.000243  -0.000010   0.000000
    25  H   -0.001592  -0.000040   0.000050   0.000038   0.000006   0.000000
    26  H    0.007502   0.002132  -0.000081  -0.000062  -0.000010   0.000000
    27  H   -0.000078   0.000007   0.000000  -0.000014  -0.000001   0.000000
    28  H    0.385654  -0.045627  -0.043922   0.008049  -0.000066   0.000003
    29  H   -0.039377   0.405382   0.000374   0.016481   0.000154   0.000022
    30  H   -0.087955   0.399943  -0.002142  -0.009895  -0.000470  -0.000003
    31  H   -0.110234   0.419520   0.011396  -0.001480   0.000080  -0.000001
    32  H    0.000808   0.000178   0.004262   0.206898  -0.011430  -0.003163
    33  H   -0.000023  -0.000005   0.000006   0.122175   0.092401  -0.007998
    34  H   -0.000039   0.000003   0.000013   0.009356  -0.004587   0.000899
             19         20         21         22         23         24
     1  O    0.050789  -0.778041   0.184648   0.000181   0.000157   0.000001
     2  C    0.430364  -2.620213   0.049224   0.008982   0.001220  -0.000121
     3  C   -0.206217  -1.339924  -0.138339  -0.007200   0.006299   0.000427
     4  C    0.161885   0.224533   0.014906   0.042741   0.054198   0.016160
     5  N   -0.010537   0.014509   0.065296  -0.007767   0.035705   0.005022
     6  C   -0.023540  -0.053474   0.018464   0.305375  -0.040247  -0.008096
     7  C   -0.002386   0.002691  -0.006523  -0.120040   0.265152  -0.000435
     8  O    0.000041  -0.000069  -0.000007   0.004026  -0.043748   0.272856
     9  C    0.002088  -0.001503   0.000000  -0.000757  -0.014293  -0.037640
    10  C    0.001749  -0.015380  -0.000300   0.008364   0.023984   0.012236
    11  O    0.000050  -0.000556  -0.000146  -0.000125  -0.000590   0.000107
    12  O    0.000002   0.000331  -0.000021  -0.000254   0.000767   0.011247
    13  C    0.000564   0.043513  -0.006459   0.019023  -0.057009  -0.019458
    14  C   -0.004433   0.002710   0.000102   0.022679   0.038709   0.010042
    15  O   -0.001157   0.024554   0.002362   0.002644  -0.002304  -0.000100
    16  C   -1.517447  -1.753690  -0.035693  -0.000599   0.002495   0.000243
    17  C    0.785596   0.643113   0.004856  -0.000589  -0.000464  -0.000010
    18  Cl  -0.120964   0.084167  -0.000001   0.000002   0.000000   0.000000
    19  C    6.904841  -0.280751  -0.007639   0.000055   0.000081   0.000001
    20  C   -0.280751  11.083714   0.111186   0.001743   0.000671   0.000018
    21  H   -0.007639   0.111186   0.294004  -0.000023  -0.000004   0.000000
    22  H    0.000055   0.001743  -0.000023   0.513662   0.003968   0.001720
    23  H    0.000081   0.000671  -0.000004   0.003968   0.560254   0.006134
    24  H    0.000001   0.000018   0.000000   0.001720   0.006134   0.323327
    25  H   -0.000004   0.000018   0.000004  -0.000080  -0.004831  -0.000253
    26  H    0.000077   0.000741   0.000121   0.000233  -0.001110  -0.000044
    27  H    0.000001   0.000026   0.000001   0.000011   0.000003   0.000006
    28  H    0.000030   0.000129  -0.000002  -0.006519   0.000143   0.000230
    29  H    0.000028   0.001074   0.000002  -0.000047  -0.000564  -0.000001
    30  H   -0.000056   0.000059   0.000000  -0.000087   0.000050   0.000001
    31  H   -0.000001  -0.000092   0.000000  -0.000093  -0.001964  -0.000138
    32  H    0.037443  -0.008713  -0.000005   0.000000   0.000000   0.000000
    33  H    0.188011  -0.007642   0.000002   0.000000   0.000000   0.000000
    34  H   -0.008022   0.290008   0.000069   0.000000   0.000000   0.000000
             25         26         27         28         29         30
     1  O   -0.000001  -0.000137   0.000007   0.000004   0.000014  -0.000002
     2  C   -0.000348   0.004185   0.000095  -0.001388  -0.002632   0.001298
     3  C    0.000698  -0.010548  -0.000065   0.003813   0.003846   0.003797
     4  C   -0.002823   0.022044  -0.000160   0.031494  -0.001597   0.004997
     5  N    0.000725   0.009373   0.000146   0.005371   0.009361  -0.003377
     6  C    0.001825  -0.045369  -0.003280  -0.040521  -0.015446   0.062816
     7  C    0.016883  -0.083100  -0.002866  -0.005710  -0.033433  -0.001881
     8  O   -0.005963   0.010437   0.000009  -0.001972  -0.000228   0.000163
     9  C    0.335722   0.440020   0.036080   0.004764   0.013920  -0.001868
    10  C   -0.006447  -0.045577  -0.014405   0.000998   0.000952   0.000087
    11  O    0.001120   0.000348   0.249594  -0.000001   0.000000   0.000000
    12  O   -0.001730   0.009195   0.003854   0.000009  -0.000014   0.000000
    13  C   -0.001592   0.007502  -0.000078   0.385654  -0.039377  -0.087955
    14  C   -0.000040   0.002132   0.000007  -0.045627   0.405382   0.399943
    15  O    0.000050  -0.000081   0.000000  -0.043922   0.000374  -0.002142
    16  C    0.000038  -0.000062  -0.000014   0.008049   0.016481  -0.009895
    17  C    0.000006  -0.000010  -0.000001  -0.000066   0.000154  -0.000470
    18  Cl   0.000000   0.000000   0.000000   0.000003   0.000022  -0.000003
    19  C   -0.000004   0.000077   0.000001   0.000030   0.000028  -0.000056
    20  C    0.000018   0.000741   0.000026   0.000129   0.001074   0.000059
    21  H    0.000004   0.000121   0.000001  -0.000002   0.000002   0.000000
    22  H   -0.000080   0.000233   0.000011  -0.006519  -0.000047  -0.000087
    23  H   -0.004831  -0.001110   0.000003   0.000143  -0.000564   0.000050
    24  H   -0.000253  -0.000044   0.000006   0.000230  -0.000001   0.000001
    25  H    0.458303  -0.019839  -0.000233   0.000001   0.000004   0.000000
    26  H   -0.019839   0.489938   0.000014   0.000002   0.000005   0.000000
    27  H   -0.000233   0.000014   0.300927   0.000000   0.000000   0.000000
    28  H    0.000001   0.000002   0.000000   0.514810   0.003592  -0.003722
    29  H    0.000004   0.000005   0.000000   0.003592   0.514123  -0.025886
    30  H    0.000000   0.000000   0.000000  -0.003722  -0.025886   0.508047
    31  H    0.000000  -0.000001   0.000000  -0.000776  -0.025487  -0.022434
    32  H    0.000000   0.000000   0.000000   0.000000   0.000000  -0.000005
    33  H    0.000000   0.000000   0.000000   0.000000   0.000000   0.000000
    34  H    0.000000   0.000000   0.000000   0.000000   0.000000   0.000000
             31         32         33         34
     1  O   -0.000001  -0.000469  -0.000418  -0.003587
     2  C   -0.000117   0.028193  -0.054927   0.033110
     3  C   -0.001344  -0.001280   0.007132   0.014484
     4  C   -0.010615   0.065751  -0.009047  -0.003747
     5  N   -0.009167   0.000160   0.000064   0.000441
     6  C    0.037582   0.004860  -0.000056   0.000176
     7  C    0.027871   0.000176  -0.000003  -0.000025
     8  O    0.000274   0.000000   0.000000   0.000000
     9  C   -0.003003   0.000003   0.000000   0.000007
    10  C   -0.000691  -0.000010   0.000000   0.000005
    11  O    0.000001   0.000000   0.000000   0.000000
    12  O    0.000009   0.000000   0.000000   0.000000
    13  C   -0.110234   0.000808  -0.000023  -0.000039
    14  C    0.419520   0.000178  -0.000005   0.000003
    15  O    0.011396   0.004262   0.000006   0.000013
    16  C   -0.001480   0.206898   0.122175   0.009356
    17  C    0.000080  -0.011430   0.092401  -0.004587
    18  Cl  -0.000001  -0.003163  -0.007998   0.000899
    19  C   -0.000001   0.037443   0.188011  -0.008022
    20  C   -0.000092  -0.008713  -0.007642   0.290008
    21  H    0.000000  -0.000005   0.000002   0.000069
    22  H   -0.000093   0.000000   0.000000   0.000000
    23  H   -0.001964   0.000000   0.000000   0.000000
    24  H   -0.000138   0.000000   0.000000   0.000000
    25  H    0.000000   0.000000   0.000000   0.000000
    26  H   -0.000001   0.000000   0.000000   0.000000
    27  H    0.000000   0.000000   0.000000   0.000000
    28  H   -0.000776   0.000000   0.000000   0.000000
    29  H   -0.025487   0.000000   0.000000   0.000000
    30  H   -0.022434  -0.000005   0.000000   0.000000
    31  H    0.501032   0.000000   0.000000   0.000000
    32  H    0.000000   0.462807  -0.000129   0.000008
    33  H    0.000000  -0.000129   0.468138  -0.003663
    34  H    0.000000   0.000008  -0.003663   0.470995
 Mulliken atomic charges:
              1
     1  O   -0.555934
     2  C   -0.286812
     3  C   -0.023204
     4  C    0.453512
     5  N   -0.380668
     6  C   -0.093417
     7  C    0.195135
     8  O   -0.527424
     9  C   -0.444848
    10  C    0.490520
    11  O   -0.461300
    12  O   -0.481097
    13  C   -0.170032
    14  C   -0.421435
    15  O   -0.318560
    16  C   -0.410202
    17  C   -0.207312
    18  Cl   0.233481
    19  C   -0.380542
    20  C    0.330539
    21  H    0.449916
    22  H    0.208769
    23  H    0.167137
    24  H    0.406518
    25  H    0.228787
    26  H    0.209511
    27  H    0.430321
    28  H    0.191130
    29  H    0.175376
    30  H    0.178524
    31  H    0.189877
    32  H    0.213659
    33  H    0.205981
    34  H    0.204097
 Sum of Mulliken atomic charges =   0.00000
 Mulliken charges with hydrogens summed into heavy atoms:
              1
     1  O   -0.106018
     2  C   -0.286812
     3  C   -0.023204
     4  C    0.453512
     5  N   -0.380668
     6  C    0.115352
     7  C    0.362272
     8  O   -0.120906
     9  C   -0.006550
    10  C    0.490520
    11  O   -0.030980
    12  O   -0.481097
    13  C    0.021098
    14  C    0.122342
    15  O   -0.318560
    16  C   -0.196544
    17  C   -0.207312
    18  Cl   0.233481
    19  C   -0.174562
    20  C    0.534636
 Sum of Mulliken charges with hydrogens summed into heavy atoms =   0.00000
 Electronic spatial extent (au):  <R**2>=           7977.3046
 Charge=              0.0000 electrons
 Dipole moment (field-independent basis, Debye):
    X=              1.8198    Y=             -1.0283    Z=             -0.3837  Tot=              2.1251
 Quadrupole moment (field-independent basis, Debye-Ang):
   XX=           -127.8627   YY=           -118.3717   ZZ=           -125.1465
   XY=             -3.0695   XZ=              1.5625   YZ=             -1.3354
 Traceless Quadrupole moment (field-independent basis, Debye-Ang):
   XX=             -4.0691   YY=              5.4219   ZZ=             -1.3528
   XY=             -3.0695   XZ=              1.5625   YZ=             -1.3354
 Octapole moment (field-independent basis, Debye-Ang**2):
  XXX=             56.2961  YYY=            -12.8938  ZZZ=              0.0881  XYY=             14.9424
  XXY=            -98.5479  XXZ=             -7.1924  XZZ=             21.8515  YZZ=              1.4979
  YYZ=             23.0416  XYZ=            -11.2699
 Hexadecapole moment (field-independent basis, Debye-Ang**3):
 XXXX=          -8054.4108 YYYY=          -1949.3963 ZZZZ=           -401.7270 XXXY=           -157.8990
 XXXZ=             71.3620 YYYX=           -123.3756 YYYZ=            -49.1735 ZZZX=            -19.3484
 ZZZY=             -3.3685 XXYY=          -1481.6513 XXZZ=          -1430.1157 YYZZ=           -389.4653
 XXYZ=             -0.9566 YYXZ=            121.1816 ZZXY=            -32.9518
 N-N= 1.677355988536D+03 E-N=-6.627266594294D+03  KE= 1.385267499148D+03
 D1PCM: PCM CHGder 1st derivatives, ID1Alg=3 FixD1E=F DoIter=F DoCFld=F I1PDM=0.
 Calling FoFJK, ICntrl=      2127 FMM=F ISym2X=0 I1Cent= 0 IOpClX= 0 NMat=1 NMatS=1 NMatT=0.
 ***** Axes restored to original set *****
 -------------------------------------------------------------------
 Center     Atomic                   Forces (Hartrees/Bohr)
 Number     Number              X              Y              Z
 -------------------------------------------------------------------
      1        8          -0.028042354    0.002344367    0.014597227
      2        6           0.009134142   -0.002326740   -0.003914278
      3        6          -0.008256917    0.017477431   -0.001281045
      4        6          -0.000469952   -0.000620249   -0.003920153
      5        7          -0.001154673   -0.026660092    0.009289240
      6        6           0.015114575   -0.007609054   -0.012812517
      7        6           0.012302691   -0.000678542    0.009903465
      8        8          -0.019580828    0.001669149   -0.015027837
      9        6          -0.007860785    0.004880898    0.015755980
     10        6           0.004362628    0.007500549   -0.003101078
     11        8          -0.025557562    0.021925847   -0.033650818
     12        8          -0.014282843   -0.023446931   -0.003863424
     13        6           0.005925014   -0.004394804   -0.028163181
     14        6           0.005473955   -0.001462504    0.003870379
     15        8          -0.034876620    0.006327650    0.028887541
     16        6          -0.010018058   -0.013132707    0.009806496
     17        6           0.021607573   -0.015569037   -0.006784284
     18       17          -0.006050062    0.006228895    0.001300958
     19        6           0.015774140    0.000548699   -0.009009744
     20        6          -0.002511976    0.019795812   -0.005121310
     21        1           0.018681637    0.009610672   -0.013552161
     22        1           0.006871103   -0.002769877    0.001678764
     23        1          -0.001843205    0.000556966   -0.002762581
     24        1           0.017470446    0.002209361    0.014817757
     25        1           0.003772793    0.001232520   -0.003403238
     26        1          -0.001369816   -0.001993519    0.002188629
     27        1           0.025929359    0.000679758    0.026084124
     28        1          -0.002542884    0.001810976    0.003120876
     29        1          -0.001591830   -0.003441819    0.001446120
     30        1          -0.000886972    0.002067652    0.003240357
     31        1           0.003620653   -0.000988744    0.000327574
     32        1           0.002664975    0.003188018   -0.002579229
     33        1          -0.003407401   -0.001240809    0.002302595
     34        1           0.001599055   -0.003719789    0.000328794
 -------------------------------------------------------------------
 Cartesian Forces:  Max     0.034876620 RMS     0.012023715

 GradGradGradGradGradGradGradGradGradGradGradGradGradGradGradGradGradGrad
 Berny optimization.
 Internal  Forces:  Max     0.036769852 RMS     0.007675018
 Search for a local minimum.
 Step number   1 out of a maximum of  191
 All quantities printed in internal units (Hartrees-Bohrs-Radians)
 Mixed Optimization -- RFO/linear search
 Second derivative matrix not updated -- first step.
 ITU=  0
     Eigenvalues ---    0.00230   0.00230   0.00241   0.00333   0.00685
     Eigenvalues ---    0.00818   0.00903   0.01455   0.01556   0.01695
     Eigenvalues ---    0.01844   0.01923   0.01955   0.01968   0.01981
     Eigenvalues ---    0.01995   0.01997   0.02000   0.02144   0.02241
     Eigenvalues ---    0.02403   0.03589   0.03717   0.03818   0.03969
     Eigenvalues ---    0.04271   0.04652   0.05185   0.05336   0.05471
     Eigenvalues ---    0.05538   0.07641   0.08094   0.08298   0.09832
     Eigenvalues ---    0.13152   0.13565   0.16000   0.16000   0.16000
     Eigenvalues ---    0.16000   0.16000   0.16000   0.16000   0.16000
     Eigenvalues ---    0.16000   0.16749   0.17530   0.19387   0.20145
     Eigenvalues ---    0.21973   0.22371   0.23490   0.23751   0.24601
     Eigenvalues ---    0.24990   0.24999   0.25000   0.25000   0.25000
     Eigenvalues ---    0.25000   0.27102   0.27194   0.27472   0.28546
     Eigenvalues ---    0.29174   0.33057   0.33493   0.34616   0.34721
     Eigenvalues ---    0.34737   0.34788   0.34798   0.34799   0.34800
     Eigenvalues ---    0.34825   0.35941   0.35949   0.35980   0.37869
     Eigenvalues ---    0.39778   0.40406   0.42027   0.42775   0.43043
     Eigenvalues ---    0.43969   0.44303   0.44498   0.48737   0.51789
     Eigenvalues ---    0.53250   0.56427   0.57619   0.58887   0.71600
     Eigenvalues ---    0.91609
 RFO step:  Lambda=-2.72809025D-02 EMin= 2.30000000D-03
 Linear search not attempted -- first point.
 Iteration  1 RMS(Cart)=  0.07116533 RMS(Int)=  0.00088713
 Iteration  2 RMS(Cart)=  0.00177471 RMS(Int)=  0.00021854
 Iteration  3 RMS(Cart)=  0.00000240 RMS(Int)=  0.00021853
 Iteration  4 RMS(Cart)=  0.00000000 RMS(Int)=  0.00021853
 Variable       Old X    -DE/DX   Delta X   Delta X   Delta X     New X
                                 (Linear)    (Quad)   (Total)
    R1        2.58102  -0.01512   0.00000  -0.02774  -0.02774   2.55328
    R2        1.80585   0.02499   0.00000   0.04224   0.04224   1.84809
    R3        2.69093  -0.01964   0.00000  -0.04430  -0.04428   2.64665
    R4        2.66263  -0.01443   0.00000  -0.03102  -0.03103   2.63160
    R5        2.81494  -0.02291   0.00000  -0.06325  -0.06325   2.75169
    R6        2.67003  -0.01331   0.00000  -0.02877  -0.02874   2.64129
    R7        2.39663   0.01494   0.00000   0.02036   0.02074   2.41736
    R8        2.57988  -0.01063   0.00000  -0.01931  -0.01904   2.56084
    R9        2.71915   0.01222   0.00000   0.03075   0.03077   2.74992
   R10        2.93936  -0.01553   0.00000  -0.05189  -0.05189   2.88747
   R11        2.91893   0.00750   0.00000   0.02200   0.02156   2.94049
   R12        2.06303   0.00544   0.00000   0.01457   0.01457   2.07760
   R13        2.67948   0.00055   0.00000   0.00120   0.00120   2.68068
[...]
 6,0.00000203,-0.00000147,0.00000080,0.00000681,-0.00000317,0.00000176,
 0.00000303,-0.00000687,-0.00000232,-0.00003716,-0.00004563,0.00002295,
 -0.00008839,0.00013212,-0.00015971,0.00125836,-0.00055772,0.00032836,0
 .00006418,-0.00000045,-0.00002834,-0.00001517,0.00002525,-0.00000239,0
 .00000377,-0.00001263,-0.00000068,0.00000302,-0.00000420,0.00000119,0.
 00029723,0.00105491,0.00106317,0.13954864,0.21783902,0.00002118,-0.000
 05316,0.00000754,-0.00007788,0.00005841,0.00000603,-0.00001890,0.00001
 677,-0.00000384,0.00030764,0.00029125,-0.00102558,0.00005784,0.0003828
 0,0.00010927,0.00029819,-0.00050523,0.00106175,0.00013249,0.00047938,0
 .00017285,0.00038547,-0.00016389,0.00006139,0.00002054,-0.00000611,0.0
 0011094,0.00000002,-0.00002159,-0.00002715,0.00001228,-0.00000574,0.00
 000983,0.00000710,-0.00000761,0.00002892,-0.02125669,-0.02676577,-0.00
 829089,-0.03199437,-0.03908110,-0.05738443,0.00046959,0.00012512,0.003
 69853,0.00004661,-0.00003687,-0.00001182,-0.00001372,-0.00006882,0.000
 02205,-0.00002173,0.00002015,0.00000753,-0.00003877,0.00004587,0.00000
 834,0.00003254,-0.00000715,-0.00001440,0.00003067,0.00006054,-0.000025
 93,0.00015311,-0.00004202,0.00016302,-0.00027823,0.00022174,0.00031688
 ,0.00002799,-0.00007121,-0.00004256,-0.00000752,0.00002929,-0.00001071
 ,0.00000238,0.00000709,0.00000211,-0.00000132,-0.00000061,-0.00000140,
 -0.00171171,0.00137796,-0.00559437,0.03904792,0.04384335,0.06171865,0.
 00005769,0.00009479,-0.00004694,0.00002998,-0.00002678,-0.00001414,0.0
 0006275,0.00001587,0.00000148,0.00000099,-0.00010333,0.00017347,0.0001
 9479,0.00033191,-0.00031655,-0.00000524,-0.00129219,-0.00158450,0.0000
 3779,-0.00094924,-0.00013829,-0.00055086,0.00048266,-0.00025714,0.0000
 3480,0.00003235,0.00008993,0.00006782,-0.00016750,0.00009796,-0.000048
 49,0.00008564,-0.00007274,-0.00009447,0.00011312,-0.00005681,-0.007916
 70,0.01139524,0.00040230,-0.11636498,0.11931289,-0.01178837,0.00083238
 ,-0.00100908,0.00015167,-0.00001691,0.00002034,0.00000671,-0.00000176,
 0.00004913,-0.00001795,0.00001989,-0.00001807,-0.00000716,0.00002902,-
 0.00002669,-0.00000694,-0.00001312,0.00000681,0.00000300,-0.00007257,-
 0.00014086,0.00005624,-0.00019522,0.00059392,-0.00017212,0.00001398,-0
 .00006332,0.00013434,0.00015201,0.00016236,0.00000627,-0.00002479,0.00
 003094,-0.00000891,-0.00001091,0.00001467,-0.00001616,0.00001800,-0.00
 000478,0.00001334,0.00010416,-0.00006999,0.00028984,0.01132470,-0.0180
 2248,0.00232966,0.12267258,-0.00000041,-0.00000721,0.00000679,-0.00000
 619,0.00000465,0.00000450,-0.00000439,0.00003635,0.00001881,0.00001679
 ,-0.00069874,-0.00019644,-0.00014915,0.00064500,0.00014890,0.00062245,
 0.00123501,-0.00057790,-0.00050555,-0.00030956,-0.00014234,0.00012803,
 0.00014928,0.00001345,0.00018064,0.00012266,0.00010107,-0.00012033,-0.
 00002437,-0.00012473,0.00009291,-0.00006777,0.00010340,0.00007981,-0.0
 0001175,0.00004582,0.00008557,-0.00152467,-0.00028454,0.11971811,-0.25
 479837,0.01945361,-0.00050292,0.00066227,-0.00018966,0.00000399,-0.000
 02656,-0.00000506,-0.00001040,-0.00001590,0.00000620,-0.00000650,0.000
 00678,0.00000156,-0.00000925,0.00001186,0.00000611,0.00000549,0.000000
 28,-0.00001165,0.00000472,0.00002678,-0.00000996,0.00000781,-0.0002564
 0,0.00008978,0.00014537,0.00024201,0.00039308,-0.00005418,0.00002464,-
 0.00003515,0.00000941,-0.00001539,0.00000450,0.00000167,-0.00000165,-0
 .00000132,-0.00001557,-0.00000490,-0.00000787,-0.00023049,0.00069491,0
 .00048350,0.01267970,-0.01888398,0.00205436,-0.13064081,0.27151397,0.0
 0014365,0.00007883,-0.00009881,-0.00003291,0.00005463,-0.00000873,0.00
 000266,-0.00013236,0.00000413,-0.00029002,0.00140240,0.00025947,0.0006
 0074,0.00031839,-0.00037933,-0.00166655,-0.00211069,-0.00485812,0.0002
 3678,-0.00071856,-0.00120933,0.00021685,-0.00028626,0.00047160,0.00005
 827,0.00013704,0.00029139,0.00000394,-0.00021990,0.00000014,0.00002237
 ,0.00003438,-0.00000079,-0.00007846,0.00011279,0.00006837,-0.01685996,
 0.03042119,-0.00542626,-0.00968685,0.01755939,-0.04721068,-0.00043066,
 -0.00178150,0.00280621,-0.00000739,0.00002835,-0.00001278,0.00001669,0
 .00002708,-0.00001061,0.00001233,-0.00001208,-0.00000196,0.00002057,-0
 .00002274,-0.00000567,-0.00000735,-0.00000985,0.00001228,-0.00012116,-
 0.00020055,0.00013311,-0.00045686,0.00134505,-0.00044363,0.00038133,0.
 00009065,0.00038314,0.00001525,-0.00010389,-0.00006093,-0.00002855,0.0
 0007079,-0.00001502,0.00000659,-0.00002924,-0.00000464,0.00000658,-0.0
 0000871,0.00000947,0.00050567,-0.00044673,0.00130761,0.00394095,-0.005
 00261,-0.00054209,0.01462996,-0.02078188,0.05182272,-0.00002550,0.0000
 3274,-0.00000063,0.00006932,-0.00006039,0.00000027,0.00011132,0.000231
 83,0.00003357,0.00039521,-0.00101437,-0.00049734,-0.00033961,0.0001906
 5,0.00032903,0.00019583,0.00009121,0.00026454,0.00046223,0.00110982,-0
 .00015508,-0.00159072,0.00080705,-0.00025361,-0.00016243,-0.00016206,0
 .00004313,-0.00001463,0.00010613,-0.00003193,0.00000343,-0.00003394,0.
 00000673,0.00002553,-0.00006245,0.00005534,0.00955933,-0.00045900,-0.0
 0587747,-0.20434999,0.00030577,0.13931799,0.00134566,0.00134807,-0.004
 46387,-0.00001839,0.00002385,-0.00000683,-0.00000614,0.00001870,-0.000
 00150,0.00001030,-0.00000885,-0.00000280,0.00000959,-0.00000089,-0.000
 00393,-0.00000285,0.00001551,-0.00001371,0.00000113,-0.00000659,0.0000
 0854,-0.00003067,-0.00018977,0.00002065,-0.00013612,-0.00004540,-0.000
 15980,-0.00028457,-0.00003596,0.00000744,-0.00000352,0.00001153,0.0000
 0501,0.00000997,-0.00005381,0.00002165,-0.00000034,0.00000503,-0.00000
 423,0.00019450,-0.00039492,0.00075917,-0.01280846,0.00194635,0.0120346
 4,-0.01032827,-0.00152085,0.00883553,0.21771892,0.00003566,-0.00000064
 ,-0.00002239,-0.00002761,0.00003003,0.00000174,-0.00002474,-0.00003890
 ,-0.00007016,0.00002554,0.00042291,-0.00042901,0.00011884,0.00022353,0
 .00000719,-0.00034329,0.00013365,-0.00005743,0.00031001,-0.00085758,0.
 00113379,0.00018087,-0.00050037,-0.00025014,-0.00015342,-0.00007338,-0
 .00021810,0.00015866,-0.00002973,0.00018795,-0.00013317,0.00011903,-0.
 00015019,-0.00011565,0.00005710,-0.00014008,-0.00230617,-0.00242803,0.
 00145117,0.00164904,-0.04660648,-0.00238524,0.00027456,0.00096901,0.00
 132589,0.00001007,-0.00000716,-0.00001181,0.00000227,-0.00000919,0.000
 00252,-0.00000310,0.00000245,0.00000039,-0.00000503,0.00000324,-0.0000
 0039,0.00000721,-0.00000289,0.00000229,-0.00002471,-0.00003068,0.00003
 372,0.00007493,0.00000068,-0.00008460,-0.00024729,-0.00086675,0.000066
 45,0.00024566,0.00025225,0.00003448,-0.00000619,-0.00000330,-0.0000045
 4,-0.00001788,0.00004743,-0.00001966,0.00002346,0.00000462,0.00001180,
 -0.00003614,0.00006414,0.00013417,-0.01725019,0.00048693,0.01783542,0.
 01977554,0.00126578,-0.01980497,-0.00219961,0.04737833,-0.00002762,0.0
 0015051,-0.00003327,0.00018681,-0.00020314,0.00002715,0.00023750,0.000
 46660,-0.00007516,0.00008621,-0.00427317,0.00006637,-0.00070446,0.0009
 0793,0.00075495,0.00027244,-0.00012923,0.00007066,0.00032309,0.0012298
 2,-0.00065114,0.00074459,-0.00105744,0.00053308,0.00003780,0.00004042,
 0.00017982,-0.00005595,0.00005146,-0.00013188,0.00008577,-0.00009552,0
 .00009644,0.00006042,-0.00008345,0.00014523,0.02423372,-0.00021249,-0.
 01390922,0.13589083,-0.00124460,-0.16985491,0.00024234,0.00331491,-0.0
 0923307,-0.00009221,0.00006432,0.00001809,-0.00000968,0.00010597,-0.00
 002982,0.00004373,-0.00003809,-0.00001332,0.00004792,-0.00003616,-0.00
 001099,-0.00001958,0.00003938,-0.00002807,-0.00005817,-0.00011229,0.00
 007757,-0.00018100,-0.00010171,0.00007150,-0.00010065,0.00035586,0.000
 10345,-0.00017931,-0.00024530,-0.00011057,-0.00000579,0.00002155,0.000
 00564,0.00002236,-0.00007185,0.00002267,-0.00001715,-0.00000150,-0.000
 00912,-0.00038392,-0.00045071,0.00092599,-0.00649506,0.00074427,0.0054
 6894,-0.00388778,-0.00058268,0.00273225,-0.15026151,0.00141332,0.18279
 405,-0.00016736,0.00149237,-0.00028610,-0.00172326,0.00260810,0.003709
 06,0.00749863,0.01949247,-0.00740164,-0.00043841,0.00066330,-0.0021387
 2,0.00029555,-0.00057303,-0.00009775,0.00012430,0.00007600,0.00009846,
 -0.00004524,-0.00000597,0.00008077,0.00004975,-0.00001585,-0.00002307,
 0.00001620,0.00000118,-0.00002684,-0.00002681,0.00002902,-0.00003086,0
 .00001588,-0.00002233,0.00002294,0.00002143,-0.00001652,0.00000769,-0.
 00045020,-0.00031378,0.00051356,0.00012592,-0.00000002,-0.00007271,-0.
 00122987,-0.00033126,0.00060007,-0.05789772,-0.03456157,0.02100369,0.0
 0052356,-0.02250557,0.00841914,0.00032520,-0.00126966,-0.00143928,-0.0
 0277720,-0.00000738,0.00485369,-0.00092860,0.00050500,-0.00020049,0.00
 046816,0.00013527,-0.00030455,0.00005016,-0.00000516,-0.00002429,0.000
 00094,0.00000257,-0.00000271,-0.00002454,0.00000002,0.00000061,0.00001
 043,-0.00001180,0.00000310,0.00000066,0.00000930,0.00000166,-0.0000045
 9,0.00000116,-0.00000265,0.00005367,0.00000306,-0.00005065,-0.00000847
 ,0.00000160,0.00000575,-0.00001267,-0.00000519,0.00001099,-0.00001484,
 0.00000314,-0.00004917,0.05606148,-0.00004283,-0.00087919,0.00028351,0
 .00364842,0.00057779,-0.00044182,-0.00310412,-0.01420090,0.00687423,-0
 .00088938,-0.00190216,-0.00010266,-0.00016780,0.00034049,0.00004073,-0
 .00008331,0.00015216,0.00021879,0.00001379,-0.00000541,-0.00011848,-0.
 00007586,-0.00000195,0.00003740,-0.00001992,0.00000491,0.00003575,0.00
 003738,-0.00002165,0.00003529,-0.00001895,0.00001906,-0.00002362,-0.00
 002701,0.00000923,-0.00001121,0.00031249,0.00040214,-0.00059648,-0.000
 05361,0.00001070,0.00002230,-0.00167575,0.00077130,0.00092115,-0.03507
 941,-0.30841719,0.09606574,0.00150053,-0.00150692,0.00078624,0.0001701
 2,0.00053910,-0.00105215,0.00011746,0.00127871,0.00122471,-0.00002472,
 0.00049091,-0.00040033,-0.00031603,-0.00009538,0.00019768,-0.00000793,
 -0.00000233,0.00000148,0.00000236,-0.00000508,-0.00000091,0.00002492,0
 .00000442,0.00000296,-0.00001113,0.00001482,-0.00000307,-0.00000049,-0
 .00000930,-0.00000162,0.00000514,-0.00000032,0.00000284,-0.00004308,-0
 .00000716,0.00003705,0.00000966,-0.00000957,-0.00001284,0.00001630,0.0
 0000380,-0.00000528,0.00000373,-0.00000583,0.00003113,0.03586697,0.322
 44853,0.00012935,-0.00051090,0.00016031,0.00340112,0.00010110,0.004247
 25,-0.00107550,-0.00572739,0.00626470,-0.00173731,-0.00097761,-0.00278
 831,-0.00011672,0.00021096,-0.00003975,0.00018976,0.00012619,0.0003797
 1,-0.00001277,-0.00002163,-0.00003425,-0.00004308,0.00000212,0.0000166
 4,-0.00000750,0.00000184,0.00001314,0.00001632,0.00000154,0.00001504,-
 0.00000604,0.00000262,-0.00000822,-0.00000661,-0.00000412,-0.00000797,
 0.00008622,-0.00012435,-0.00026127,-0.00001718,0.00000592,0.00001209,0
 .00111971,0.00004341,-0.00045116,0.02108481,0.09577435,-0.07660278,0.0
 0173266,0.01419404,-0.00061421,-0.00186211,-0.00024830,-0.00186602,0.0
 0480449,0.00128617,0.00284535,-0.00004762,-0.00069946,-0.00075669,-0.0
 0015769,-0.00003927,0.00008252,0.00006504,-0.00000086,-0.00004966,-0.0
 0000087,-0.00000674,-0.00000423,0.00000817,0.00000282,0.00000679,-0.00
 000314,0.00000646,-0.00000182,0.00000027,-0.00000184,-0.00000028,0.000
 00068,0.00000090,0.00000159,-0.00003734,0.00000696,0.00003658,0.000002
 56,-0.00001159,-0.00000155,0.00000695,0.00001472,-0.00001257,-0.000004
 47,0.00000565,0.00000680,-0.02721179,-0.10397164,0.06987467,-0.0011113
 1,-0.00031058,0.00062665,0.00134105,0.00356714,0.00288030,0.00013784,0
 .00044836,-0.00071288,-0.00027472,-0.00010183,-0.00016900,-0.00003862,
 -0.00009974,-0.00004936,0.00005165,-0.00000558,0.00005352,-0.00000887,
 0.00000900,0.00000170,0.00000296,-0.00000016,-0.00000196,0.00000072,0.
 00000116,-0.00000002,0.00000075,0.00000239,0.00000033,0.00000030,-0.00
 000107,0.00000021,0.00000087,-0.00000205,-0.00000098,0.00000220,-0.000
 03285,-0.00000930,-0.00000049,-0.00000066,0.00000018,-0.00000044,-0.00
 001244,0.00004506,0.00229351,0.00026014,0.00165651,0.00027188,0.001873
 39,0.00141978,0.00034610,0.00007811,-0.00154474,-0.24889891,-0.0533633
 4,0.13199337,-0.01091847,-0.00575983,0.01047489,0.00003875,0.00030596,
 -0.00023243,0.00001223,0.00000668,-0.00001094,-0.00000083,-0.00000117,
 -0.00000022,-0.00000110,0.00000012,0.00000055,0.00000017,-0.00000010,0
 .00000012,0.00000032,0.00000060,-0.00000071,-0.00000040,0.00000018,0.0
 0000033,0.00000014,-0.00000182,0.00000239,0.00000059,0.00000005,0.0000
 0088,0.00000020,0.00000052,-0.00000014,0.00000001,0.00000054,0.0000006
 0,0.00009719,0.00001445,-0.00007831,0.25695313,0.00114189,0.00057998,-
 0.00084130,0.00361308,-0.00256213,0.00105244,0.00086770,-0.00083376,-0
 .00049434,-0.00026506,-0.00016825,0.00001049,0.00007181,0.00001593,-0.
 00010567,-0.00002129,0.00001455,0.00005345,-0.00001577,0.00001343,0.00
 001236,0.00001422,0.00000077,-0.00000995,-0.00000174,-0.00000024,0.000
 00098,-0.00000728,0.00000613,-0.00000629,0.00000364,-0.00000458,0.0000
 0435,0.00000539,-0.00000277,0.00000156,0.00002122,0.00002119,-0.000030
 47,-0.00000168,0.00000294,0.00000093,-0.00004330,0.00012022,0.00002581
 ,0.00026811,-0.00503194,0.00278310,-0.02287280,-0.00254040,0.01455344,
 -0.00116842,0.00104093,-0.00031111,-0.05187918,-0.07142732,0.03803255,
 0.01862722,0.00953273,-0.01166826,0.00002609,-0.00033279,0.00000999,0.
 00001245,0.00001013,-0.00001192,-0.00000058,-0.00000087,-0.00000007,-0
 .00000413,-0.00000033,0.00000017,0.00000212,-0.00000026,-0.00000027,-0
 .00000137,0.00000454,0.00000203,-0.00000124,0.00000041,-0.00000062,-0.
 00000233,0.00000347,-0.00000173,0.00000128,-0.00000102,0.00000154,-0.0
 0000037,0.00000121,-0.00000275,-0.00000015,0.00000009,0.00000006,-0.00
 114878,0.00007883,0.00060258,0.05390165,0.07092479,0.00018101,0.000007
 27,-0.00025050,0.00283726,0.00101848,0.00643690,-0.00082818,-0.0002498
 7,-0.00039080,-0.00014973,-0.00007316,-0.00052360,-0.00005917,-0.00001
 111,-0.00009247,0.00004700,0.00004384,0.00005828,-0.00000260,-0.000002
 51,-0.00000504,-0.00000805,-0.00000172,0.00000264,-0.00000140,0.000000
 32,0.00000193,0.00000424,-0.00000162,0.00000367,-0.00000144,0.00000130
 ,-0.00000273,-0.00000211,-0.00000017,-0.00000191,-0.00000228,-0.000027
 74,0.00000515,-0.00000225,0.00000016,0.00000074,0.00002284,0.00000194,
 0.00004243,0.00168057,0.00280790,0.00368107,0.00839755,0.00073491,-0.0
 0111833,-0.00119558,-0.00099082,-0.00141166,0.13153696,0.03889403,-0.1
 2335440,0.00365389,0.00186073,0.00237844,-0.00012725,-0.00011501,-0.00
 012855,0.00000973,-0.00000652,0.00000054,-0.00000003,-0.00000104,-0.00
 000092,0.00000148,0.00000068,0.00000099,-0.00000004,0.00000099,-0.0000
 0025,-0.00000049,0.,0.00000035,0.00000020,0.00000017,0.00000097,0.0000
 0126,-0.00000225,0.00000066,-0.00000017,0.00000019,0.00000029,0.000000
 67,0.00000034,0.00000008,-0.00000012,0.00000046,0.00000076,0.00024798,
 -0.00003584,-0.00016645,-0.14406162,-0.04280106,0.11809577,0.00171203,
 -0.00013573,-0.00272303,0.00135389,-0.02416110,0.00891695,-0.00279609,
 0.00011977,0.00426369,0.00060345,-0.00121741,-0.00001190,0.00001220,0.
 00016622,-0.00003281,0.00000431,0.00005430,0.00000224,0.00001091,-0.00
 002293,-0.00003226,-0.00003306,0.00000338,0.00002045,-0.00000604,-0.00
 000005,0.00000804,0.00001351,-0.00001577,0.00001678,-0.00000610,0.0000
 1083,-0.00001390,-0.00000927,0.00000788,-0.00000562,0.00006089,-0.0000
 9719,-0.00010700,-0.00003098,0.00000252,0.00001505,-0.00055166,-0.0001
 1830,0.00035330,-0.00137764,0.00054729,0.00009744,-0.00019070,0.003060
 91,0.00343279,-0.00040918,0.00132997,-0.00002566,0.00654558,0.02089504
 ,-0.00787165,-0.05716712,-0.03197690,0.02127043,-0.00026424,-0.0002443
 4,-0.00011799,-0.00001398,-0.00001093,0.00001072,0.00000101,-0.0000013
 0,-0.00000101,0.00001087,0.00000040,0.00000108,-0.00000364,0.00000404,
 -0.00000073,-0.00000095,-0.00000435,0.00000056,0.00000039,-0.00000002,
 0.00000266,-0.00003647,-0.00000046,0.00004083,0.00000183,-0.00000078,-
 0.00000366,0.00000343,-0.00000082,-0.00000084,0.00000477,-0.00000178,0
 .00001288,0.00001067,-0.00010239,-0.00022204,-0.00029840,-0.00114240,-
 0.00218016,0.05284576,0.00017210,0.00031811,-0.00109556,0.00144313,-0.
 00255613,0.00133086,-0.00035854,0.00076348,0.00138486,0.00045869,-0.00
 011552,-0.00021662,-0.00000246,0.00017617,-0.00002025,-0.00004086,0.00
 002931,0.00000503,0.00000283,-0.00000923,-0.00000695,-0.00000912,0.000
 00048,0.00000546,-0.00000223,-0.00000127,0.00000198,0.00000311,-0.0000
 0173,0.00000414,-0.00000112,0.00000109,-0.00000293,-0.00000290,0.00000
 078,-0.00000186,0.00002068,0.00000568,-0.00003869,-0.00000514,0.000001
 85,0.00000439,-0.00010203,-0.00001715,0.00004263,-0.00012967,0.0005867
 9,-0.00034572,0.00335563,0.00065894,0.00003541,0.00024435,-0.00082842,
 0.00016019,-0.00389793,-0.01408725,0.00697474,-0.03308480,-0.30871463,
 0.09540959,-0.00023238,-0.00004873,-0.00002921,-0.00000708,-0.00000789
 ,0.00000749,0.00000053,0.00000004,-0.00000028,0.00000259,0.00000032,0.
 00000033,-0.00000060,0.00000120,-0.00000029,-0.00000033,-0.00000034,0.
 00000060,-0.00000014,0.00000047,0.00000073,-0.00000698,0.00000546,0.00
 000371,0.00000010,-0.00000025,-0.00000131,0.00000101,-0.00000002,-0.00
 000041,0.00000103,-0.00000032,0.00000180,-0.00009664,-0.00007656,-0.00
 004468,-0.00077723,0.00053440,-0.00105326,0.03305240,0.32338087,-0.002
 78577,-0.00092159,-0.00141882,0.00159724,0.01562041,-0.00024170,0.0044
 4259,0.00108870,0.00223818,-0.00045642,0.00071278,0.00005045,-0.000005
 14,-0.00012862,0.00004006,0.00001685,-0.00002384,0.00000859,-0.0000069
 8,0.00001436,0.00001943,0.00001633,-0.00000426,-0.00001274,0.00000147,
 -0.00000022,-0.00000698,-0.00000362,0.00000935,-0.00000328,0.00000272,
 -0.00000582,0.00000282,0.00000341,-0.00000646,-0.00000086,-0.00005604,
 0.00004429,0.00003241,0.00002722,0.00000275,-0.00000986,0.00028795,0.0
 0003940,-0.00030268,0.00031181,-0.00073755,-0.00088457,0.00332264,0.00
 023402,0.00558074,0.00028618,-0.00045115,0.00018925,-0.00091642,-0.006
 83647,0.00541967,0.02163450,0.09478068,-0.07400821,-0.00012180,-0.0000
 1919,-0.00051337,0.00001177,0.00000577,-0.00001262,-0.00000053,0.00000
 123,-0.00000129,-0.00000569,0.00000039,0.00000040,0.00000288,-0.000002
 18,0.00000025,0.00000165,0.00000330,0.00000127,-0.00000111,0.00000053,
 0.00000097,0.00001687,-0.00000170,-0.00001903,-0.00000261,-0.00000092,
 0.00000188,-0.00000129,0.00000070,-0.00000003,-0.00000439,0.00000032,-
 0.00001088,-0.00021585,-0.00004103,-0.00029601,-0.00228476,-0.00086204
 ,-0.00326408,-0.02511564,-0.10251593,0.06742062\\0.00002559,0.00001683
 ,-0.00001620,0.00000754,-0.00000699,-0.00000062,-0.00000659,0.00001988
 ,-0.00000422,0.00002823,-0.00007105,0.00001803,-0.00004247,0.00002782,
 0.00000692,0.00000940,0.00001676,-0.00001522,-0.00000916,0.00000825,0.
 00000549,0.00000590,0.00000815,-0.00000353,-0.00000499,-0.00000700,-0.
 00000302,-0.00000988,-0.00000755,0.00000183,-0.00000136,0.00000124,-0.
 00000251,0.00001334,0.00000603,0.00000094,-0.00001661,0.00000196,0.000
 02068,-0.00000087,-0.00001112,-0.00000230,0.00002697,0.00001989,-0.000
 02449,0.00000132,-0.00000889,0.00000095,-0.00000568,-0.00000573,0.0000
 0780,0.00000387,-0.00000296,0.00000162,-0.00000679,0.00000868,0.000004
 84,0.00000622,-0.00001490,0.00000416,-0.00002679,-0.00000864,0.0000185
 4,-0.00000576,0.00000148,-0.00000265,0.00000049,0.00000166,-0.00000069
 ,-0.00001293,-0.00000284,-0.00000849,0.00000354,0.00000126,-0.00000278
 ,0.00000194,0.00000552,-0.00000282,0.00001008,0.00000410,0.00000084,0.
 00000121,-0.00000028,-0.00000595,-0.00000012,0.00000207,-0.00000020,-0
 .00000295,-0.00000252,-0.00000199,-0.00000183,0.00000059,0.00000126,-0
 .00000010,-0.00000301,0.00000112,0.00000595,-0.00000178,0.00000109,0.0
 0000330,0.00000309,0.00000160\\\@


 WE HAVE LEARNED THAT NOTHING IS SIMPLE AND
 RATIONAL EXCEPT WHAT WE OURSELVES HAVE INVENTED;
 THAT GOD THINKS IN TERMS NEITHER OF EUCLID OR RIEMANN; THAT SCIENCE HAS "EXPLAINED" NOTHING;
 THAT THE MORE WE KNOW THE MORE FANTASTIC THE WORLD BECOMES
 AND THE PROFOUNDER THE SURROUNDING DARKNESS.
   --  ALDOUS HUXLEY
 Job cpu time:  0 days  8 hours  5 minutes  5.7 seconds.
 File lengths (MBytes):  RWF=    868 Int=      0 D2E=      0 Chk=     20 Scr=      1
 Normal termination of Gaussian 09 at Sat Mar 23 00:45:02 2019.
