 Entering Gaussian System, Link 0=g09
 Initial command:
 /home/yuheng/proj/yuheng/g09/l1.exe /home/yuheng/proj/yuheng/g09_scratch/Gau-32119.inp -scrdir=/home/yuheng/proj/yuheng/g09_scratch/
 Entering Link 1 = /home/yuheng/proj/yuheng/g09/l1.exe PID=     32120.
  
 Copyright (c) 1988,1990,1992,1993,1995,1998,2003,2009,2010,
            Gaussian, Inc.  All Rights Reserved.
  
 This is part of the Gaussian(R) 09 program.  It is based on
 the Gaussian(R) 03 system (copyright 2003, Gaussian, Inc.),
 the Gaussian(R) 98 system (copyright 1998, Gaussian, Inc.),
 the Gaussian(R) 94 system (copyright 1995, Gaussian, Inc.),
 the Gaussian 92(TM) system (copyright 1992, Gaussian, Inc.),
 the Gaussian 90(TM) system (copyright 1990, Gaussian, Inc.),
 the Gaussian 88(TM) system (copyright 1988, Gaussian, Inc.),
 the Gaussian 86(TM) system (copyright 1986, Carnegie Mellon
 University), and the Gaussian 82(TM) system (copyright 1983,
 Carnegie Mellon University). Gaussian is a federally registered
 trademark of Gaussian, Inc.
  
 This software contains proprietary and confidential information,
 including trade secrets, belonging to Gaussian, Inc.
  
 This software is provided under written license and may be
 used, copied, transmitted, or stored only in accord with that
 written license.
  
 The following legend is applicable only to US Government
 contracts under FAR:
  
                    RESTRICTED RIGHTS LEGEND
  
 Use, reproduction and disclosure by the US Government is
 subject to restrictions as set forth in subparagraphs (a)
 and (c) of the Commercial Computer Software - Restricted
 Rights clause in FAR 52.227-19.
  
 Gaussian, Inc.
 340 Quinnipiac St., Bldg. 40, Wallingford CT 06492
  
  
 ---------------------------------------------------------------
 Warning -- This program may not be used in any manner that
 competes with the business of Gaussian, Inc. or will provide
 assistance to any competitor of Gaussian, Inc.  The licensee
 of this program is prohibited from giving any competitor of
 Gaussian, Inc. access to this program.  By using this program,
 the user acknowledges that Gaussian, Inc. is engaged in the
 business of creating and licensing software in the field of
 computational chemistry and represents and warrants to the
 licensee that it is not a competitor of Gaussian, Inc. and that
 it will not use this program in any manner prohibited above.
 ---------------------------------------------------------------
  

 Cite this work as:
 Gaussian 09, Revision B.01,
 M. J. Frisch, G. W. Trucks, H. B. Schlegel, G. E. Scuseria, 
 M. A. Robb, J. R. Cheeseman, G. Scalmani, V. Barone, B. Mennucci, 
 G. A. Petersson, H. Nakatsuji, M. Caricato, X. Li, H. P. Hratchian, 
 A. F. Izmaylov, J. Bloino, G. Zheng, J. L. Sonnenberg, M. Hada, 
 M. Ehara, K. Toyota, R. Fukuda, J. Hasegawa, M. Ishida, T. Nakajima, 
 Y. Honda, O. Kitao, H. Nakai, T. Vreven, J. A. Montgomery, Jr., 
 J. E. Peralta, F. Ogliaro, M. Bearpark, J. J. Heyd, E. Brothers, 
 K. N. Kudin, V. N. Staroverov, T. Keith, R. Kobayashi, J. Normand, 
 K. Raghavachari, A. Rendell, J. C. Burant, S. S. Iyengar, J. Tomasi, 
 M. Cossi, N. Rega, J. M. Millam, M. Klene, J. E. Knox, J. B. Cross, 
 V. Bakken, C. Adamo, J. Jaramillo, R. Gomperts, R. E. Stratmann, 
 O. Yazyev, A. J. Austin, R. Cammi, C. Pomelli, J. W. Ochterski, 
 R. L. Martin, K. Morokuma, V. G. Zakrzewski, G. A. Voth, 
 P. Salvador, J. J. Dannenberg, S. Dapprich, A. D. Daniels, 
 O. Farkas, J. B. Foresman, J. V. Ortiz, J. Cioslowski, 
 and D. J. Fox, Gaussian, Inc., Wallingford CT, 2010.
 
 ******************************************
 Gaussian 09:  EM64L-G09RevB.01 12-Aug-2010
                22-Mar-2019 
 ******************************************
 %mem=16gb
 %nprocshared=20
 Will use up to   20 processors via shared memory.
 %chk=1b-conf-12.chk
 ----------------------------------------------------------------------
 # m062x/6-31+G(d,p) opt freq=noraman integral(ultrafinegrid) scrf=(ief
 pcm,read,solvent=methanol)
 ----------------------------------------------------------------------
 1/14=-1,18=20,19=15,26=3,38=1,40=2/1,3;
 2/9=110,12=2,17=6,18=5,40=1/2;
 3/5=1,6=6,7=111,11=2,16=1,25=1,30=1,70=2203,71=1,72=3,74=-55,75=-5/1,2,3;
 4//1;
 5/5=2,38=5,53=3/2;
 6/7=2,8=2,9=2,10=2,28=1/1;
 7//1,2,3,16;
 1/14=-1,18=20,19=15/3(2);
 2/9=110/2;
 99//99;
 2/9=110/2;
 3/5=1,6=6,7=111,11=2,16=1,25=1,30=1,70=2205,71=1,72=3,74=-55,75=-5/1,2,3;
 4/5=5,16=3/1;
 5/5=2,38=5,53=3/2;
 7//1,2,3,16;
 1/14=-1,18=20,19=15/3(-5);
 2/9=110/2;
 6/7=2,8=2,9=2,10=2,19=2,28=1/1;
 99/9=1/99;
 ----------------------------------------------------------------------
 Candidate Structure: 1b, Conformer: 12 geometry optimization and frequ
 ency calculation with methanol solvation
 ----------------------------------------------------------------------
 Symbolic Z-matrix:
 Charge =  0 Multiplicity = 1
 O                    -1.36509   0.43185  -0.84662 
 C                    -2.04962   1.60505  -0.70127 
 C                    -1.408     2.87461  -0.76678 
 C                     0.05209   3.04837  -1.00354 
 N                     0.84843   2.09247  -1.25608 
 C                     2.18242   2.63604  -1.31658 
 C                     3.04882   1.84627  -2.32855 
 O                     2.33402   1.73401  -3.54564 
 C                     4.47927   2.40215  -2.53058 
 C                     5.53319   1.35557  -2.90853 
 O                     6.65283   1.93775  -3.41251 
 O                     5.41062   0.14654  -2.73558 
 C                     1.96928   4.15818  -1.48195 
 C                     1.95334   4.74945  -2.90456 
 O                     0.6514    4.27674  -0.98172 
 C                    -2.18344   4.04404  -0.6012 
 C                    -3.56975   3.95963  -0.37648 
 Cl                   -4.49855   5.39944  -0.17789 
 C                    -4.19828   2.70298  -0.31398 
 C                    -3.43848   1.52959  -0.47591 
 H                    -0.43874   0.61243  -0.99169 
 H                     2.64273   2.48872  -0.33607 
 H                     3.12011   0.8324   -1.92951 
 H                     1.4384    1.54156  -3.29259 
 H                     4.82428   2.85538  -1.60124 
 H                     4.48745   3.19053  -3.28089 
 H                     7.28142   1.26578  -3.62676 
 H                     2.66268   4.71831  -0.85338 
 H                     1.27042   4.20782  -3.55916 
 H                     1.62705   5.78914  -2.88175 
 H                     2.9383    4.73606  -3.36505 
 H                    -1.72041   5.01911  -0.64672 
 H                    -5.26262   2.63911  -0.14142 
 H                    -3.92358   0.56542  -0.42629 
 

 GradGradGradGradGradGradGradGradGradGradGradGradGradGradGradGradGradGrad
 Berny optimization.
 Initialization pass.
                           ----------------------------
                           !    Initial Parameters    !
                           ! (Angstroms and Degrees)  !
 --------------------------                            --------------------------
 ! Name  Definition              Value          Derivative Info.                !
 --------------------------------------------------------------------------------
 ! R1    R(1,2)                  1.3661         estimate D2E/DX2                !
 ! R2    R(1,21)                 0.9549         estimate D2E/DX2                !
 ! R3    R(2,3)                  1.424          estimate D2E/DX2                !
 ! R4    R(2,20)                 1.409          estimate D2E/DX2                !
 ! R5    R(3,4)                  1.4893         estimate D2E/DX2                !
 ! R6    R(3,16)                 1.4129         estimate D2E/DX2                !
 ! R7    R(4,5)                  1.2695         estimate D2E/DX2                !
 ! R8    R(4,15)                 1.3669         estimate D2E/DX2                !
 ! R9    R(5,6)                  1.4418         estimate D2E/DX2                !
 ! R10   R(6,7)                  1.5487         estimate D2E/DX2                !
 ! R11   R(6,13)                 1.5459         estimate D2E/DX2                !
 ! R12   R(6,22)                 1.0932         estimate D2E/DX2                !
 ! R13   R(7,8)                  1.4159         estimate D2E/DX2                !
 ! R14   R(7,9)                  1.5479         estimate D2E/DX2                !
 ! R15   R(7,23)                 1.0919         estimate D2E/DX2                !
 ! R16   R(8,24)                 0.9504         estimate D2E/DX2                !
 ! R17   R(9,10)                 1.5326         estimate D2E/DX2                !
 ! R18   R(9,25)                 1.09           estimate D2E/DX2                !
 ! R19   R(9,26)                 1.0884         estimate D2E/DX2                !
 ! R20   R(10,11)                1.3589         estimate D2E/DX2                !
 ! R21   R(10,12)                1.2275         estimate D2E/DX2                !
 ! R22   R(11,27)                0.9448         estimate D2E/DX2                !
 ! R23   R(13,14)                1.5407         estimate D2E/DX2                !
 ! R24   R(13,15)                1.4146         estimate D2E/DX2                !
 ! R25   R(13,28)                1.0907         estimate D2E/DX2                !
 ! R26   R(14,29)                1.0901         estimate D2E/DX2                !
 ! R27   R(14,30)                1.0899         estimate D2E/DX2                !
 ! R28   R(14,31)                1.0874         estimate D2E/DX2                !
 ! R29   R(16,17)                1.4069         estimate D2E/DX2                !
 ! R30   R(16,32)                1.0804         estimate D2E/DX2                !
 ! R31   R(17,18)                1.7249         estimate D2E/DX2                !
 ! R32   R(17,19)                1.4065         estimate D2E/DX2                !
 ! R33   R(19,20)                1.4073         estimate D2E/DX2                !
 ! R34   R(19,33)                1.0801         estimate D2E/DX2                !
 ! R35   R(20,34)                1.0805         estimate D2E/DX2                !
 ! A1    A(2,1,21)             109.8703         estimate D2E/DX2                !
 ! A2    A(1,2,3)              122.3437         estimate D2E/DX2                !
 ! A3    A(1,2,20)             117.7073         estimate D2E/DX2                !
 ! A4    A(3,2,20)             119.9488         estimate D2E/DX2                !
 ! A5    A(2,3,4)              123.5774         estimate D2E/DX2                !
 ! A6    A(2,3,16)             119.0281         estimate D2E/DX2                !
 ! A7    A(4,3,16)             117.3945         estimate D2E/DX2                !
 ! A8    A(3,4,5)              123.9684         estimate D2E/DX2                !
 ! A9    A(3,4,15)             122.1493         estimate D2E/DX2                !
 ! A10   A(5,4,15)             113.8778         estimate D2E/DX2                !
 ! A11   A(4,5,6)              107.7495         estimate D2E/DX2                !
 ! A12   A(5,6,7)              110.657          estimate D2E/DX2                !
 ! A13   A(5,6,13)             104.3681         estimate D2E/DX2                !
 ! A14   A(5,6,22)             107.5274         estimate D2E/DX2                !
 ! A15   A(7,6,13)             120.6217         estimate D2E/DX2                !
 ! A16   A(7,6,22)             106.3675         estimate D2E/DX2                !
 ! A17   A(13,6,22)            106.6615         estimate D2E/DX2                !
 ! A18   A(6,7,8)              108.6437         estimate D2E/DX2                !
 ! A19   A(6,7,9)              114.7799         estimate D2E/DX2                !
 ! A20   A(6,7,23)             105.7387         estimate D2E/DX2                !
 ! A21   A(8,7,9)              112.5072         estimate D2E/DX2                !
 ! A22   A(8,7,23)             105.8713         estimate D2E/DX2                !
 ! A23   A(9,7,23)             108.7124         estimate D2E/DX2                !
 ! A24   A(7,8,24)             105.2435         estimate D2E/DX2                !
 ! A25   A(7,9,10)             114.9885         estimate D2E/DX2                !
 ! A26   A(7,9,25)             109.3018         estimate D2E/DX2                !
 ! A27   A(7,9,26)             110.92           estimate D2E/DX2                !
 ! A28   A(10,9,25)            106.0532         estimate D2E/DX2                !
 ! A29   A(10,9,26)            108.6306         estimate D2E/DX2                !
 ! A30   A(25,9,26)            106.5107         estimate D2E/DX2                !
 ! A31   A(9,10,11)            111.4386         estimate D2E/DX2                !
 ! A32   A(9,10,12)            124.6939         estimate D2E/DX2                !
 ! A33   A(11,10,12)           123.8158         estimate D2E/DX2                !
 ! A34   A(10,11,27)           109.1235         estimate D2E/DX2                !
 ! A35   A(6,13,14)            118.561          estimate D2E/DX2                !
 ! A36   A(6,13,15)             99.9709         estimate D2E/DX2                !
 ! A37   A(6,13,28)            110.8767         estimate D2E/DX2                !
 ! A38   A(14,13,15)           106.5421         estimate D2E/DX2                !
 ! A39   A(14,13,28)           109.9758         estimate D2E/DX2                !
 ! A40   A(15,13,28)           110.2082         estimate D2E/DX2                !
 ! A41   A(13,14,29)           111.7332         estimate D2E/DX2                !
 ! A42   A(13,14,30)           110.4792         estimate D2E/DX2                !
 ! A43   A(13,14,31)           112.1447         estimate D2E/DX2                !
 ! A44   A(29,14,30)           107.3963         estimate D2E/DX2                !
 ! A45   A(29,14,31)           107.8819         estimate D2E/DX2                !
 ! A46   A(30,14,31)           106.9648         estimate D2E/DX2                !
 ! A47   A(4,15,13)            109.1167         estimate D2E/DX2                !
 ! A48   A(3,16,17)            120.6532         estimate D2E/DX2                !
 ! A49   A(3,16,32)            120.4544         estimate D2E/DX2                !
 ! A50   A(17,16,32)           118.8923         estimate D2E/DX2                !
 ! A51   A(16,17,18)           119.9265         estimate D2E/DX2                !
 ! A52   A(16,17,19)           120.0687         estimate D2E/DX2                !
 ! A53   A(18,17,19)           120.0048         estimate D2E/DX2                !
 ! A54   A(17,19,20)           119.9078         estimate D2E/DX2                !
 ! A55   A(17,19,33)           120.0195         estimate D2E/DX2                !
 ! A56   A(20,19,33)           120.0727         estimate D2E/DX2                !
 ! A57   A(2,20,19)            120.3933         estimate D2E/DX2                !
 ! A58   A(2,20,34)            119.846          estimate D2E/DX2                !
 ! A59   A(19,20,34)           119.7607         estimate D2E/DX2                !
 ! D1    D(21,1,2,3)            -0.0725         estimate D2E/DX2                !
 ! D2    D(21,1,2,20)         -179.9023         estimate D2E/DX2                !
 ! D3    D(1,2,3,4)              0.3013         estimate D2E/DX2                !
 ! D4    D(1,2,3,16)          -179.7396         estimate D2E/DX2                !
 ! D5    D(20,2,3,4)          -179.8726         estimate D2E/DX2                !
 ! D6    D(20,2,3,16)            0.0866         estimate D2E/DX2                !
 ! D7    D(1,2,20,19)          179.8024         estimate D2E/DX2                !
 ! D8    D(1,2,20,34)           -0.1523         estimate D2E/DX2                !
 ! D9    D(3,2,20,19)           -0.0317         estimate D2E/DX2                !
 ! D10   D(3,2,20,34)         -179.9864         estimate D2E/DX2                !
 ! D11   D(2,3,4,5)              4.8074         estimate D2E/DX2                !
 ! D12   D(2,3,4,15)          -176.0117         estimate D2E/DX2                !
 ! D13   D(16,3,4,5)          -175.1524         estimate D2E/DX2                !
 ! D14   D(16,3,4,15)            4.0285         estimate D2E/DX2                !
 ! D15   D(2,3,16,17)           -0.0839         estimate D2E/DX2                !
 ! D16   D(2,3,16,32)         -179.9923         estimate D2E/DX2                !
 ! D17   D(4,3,16,17)          179.8777         estimate D2E/DX2                !
 ! D18   D(4,3,16,32)           -0.0307         estimate D2E/DX2                !
 ! D19   D(3,4,5,6)           -175.4799         estimate D2E/DX2                !
 ! D20   D(15,4,5,6)             5.2785         estimate D2E/DX2                !
 ! D21   D(3,4,15,13)         -169.0855         estimate D2E/DX2                !
 ! D22   D(5,4,15,13)           10.1716         estimate D2E/DX2                !
 ! D23   D(4,5,6,7)           -148.1935         estimate D2E/DX2                !
 ! D24   D(4,5,6,13)           -17.0065         estimate D2E/DX2                !
 ! D25   D(4,5,6,22)            96.0281         estimate D2E/DX2                !
 ! D26   D(5,6,7,8)             49.6795         estimate D2E/DX2                !
 ! D27   D(5,6,7,9)            176.6011         estimate D2E/DX2                !
 ! D28   D(5,6,7,23)           -63.5831         estimate D2E/DX2                !
 ! D29   D(13,6,7,8)           -72.416          estimate D2E/DX2                !
 ! D30   D(13,6,7,9)            54.5055         estimate D2E/DX2                !
 ! D31   D(13,6,7,23)          174.3214         estimate D2E/DX2                !
 ! D32   D(22,6,7,8)           166.1782         estimate D2E/DX2                !
 ! D33   D(22,6,7,9)           -66.9003         estimate D2E/DX2                !
 ! D34   D(22,6,7,23)           52.9156         estimate D2E/DX2                !
 ! D35   D(5,6,13,14)          -93.7217         estimate D2E/DX2                !
 ! D36   D(5,6,13,15)           21.4186         estimate D2E/DX2                !
 ! D37   D(5,6,13,28)          137.6773         estimate D2E/DX2                !
 ! D38   D(7,6,13,14)           31.364          estimate D2E/DX2                !
 ! D39   D(7,6,13,15)          146.5043         estimate D2E/DX2                !
 ! D40   D(7,6,13,28)          -97.237          estimate D2E/DX2                !
 ! D41   D(22,6,13,14)         152.6267         estimate D2E/DX2                !
 ! D42   D(22,6,13,15)         -92.233          estimate D2E/DX2                !
 ! D43   D(22,6,13,28)          24.0256         estimate D2E/DX2                !
 ! D44   D(6,7,8,24)           -41.7557         estimate D2E/DX2                !
 ! D45   D(9,7,8,24)          -169.9709         estimate D2E/DX2                !
 ! D46   D(23,7,8,24)           71.4194         estimate D2E/DX2                !
 ! D47   D(6,7,9,10)           150.6093         estimate D2E/DX2                !
 ! D48   D(6,7,9,25)            31.4992         estimate D2E/DX2                !
 ! D49   D(6,7,9,26)           -85.6462         estimate D2E/DX2                !
 ! D50   D(8,7,9,10)           -84.4717         estimate D2E/DX2                !
 ! D51   D(8,7,9,25)           156.4183         estimate D2E/DX2                !
 ! D52   D(8,7,9,26)            39.2728         estimate D2E/DX2                !
 ! D53   D(23,7,9,10)           32.4581         estimate D2E/DX2                !
 ! D54   D(23,7,9,25)          -86.6519         estimate D2E/DX2                !
 ! D55   D(23,7,9,26)          156.2027         estimate D2E/DX2                !
 ! D56   D(7,9,10,11)          163.5852         estimate D2E/DX2                !
 ! D57   D(7,9,10,12)          -18.9512         estimate D2E/DX2                !
 ! D58   D(25,9,10,11)         -75.5117         estimate D2E/DX2                !
 ! D59   D(25,9,10,12)         101.952          estimate D2E/DX2                !
 ! D60   D(26,9,10,11)          38.636          estimate D2E/DX2                !
 ! D61   D(26,9,10,12)        -143.9003         estimate D2E/DX2                !
 ! D62   D(9,10,11,27)         179.5107         estimate D2E/DX2                !
 ! D63   D(12,10,11,27)          2.0207         estimate D2E/DX2                !
 ! D64   D(6,13,14,29)          50.7997         estimate D2E/DX2                !
 ! D65   D(6,13,14,30)         170.3012         estimate D2E/DX2                !
 ! D66   D(6,13,14,31)         -70.4723         estimate D2E/DX2                !
 ! D67   D(15,13,14,29)        -60.7509         estimate D2E/DX2                !
 ! D68   D(15,13,14,30)         58.7505         estimate D2E/DX2                !
 ! D69   D(15,13,14,31)        177.9771         estimate D2E/DX2                !
 ! D70   D(28,13,14,29)        179.818          estimate D2E/DX2                !
 ! D71   D(28,13,14,30)        -60.6806         estimate D2E/DX2                !
 ! D72   D(28,13,14,31)         58.546          estimate D2E/DX2                !
 ! D73   D(6,13,15,4)          -19.0946         estimate D2E/DX2                !
 ! D74   D(14,13,15,4)         104.8645         estimate D2E/DX2                !
 ! D75   D(28,13,15,4)        -135.8555         estimate D2E/DX2                !
 ! D76   D(3,16,17,18)        -179.9611         estimate D2E/DX2                !
 ! D77   D(3,16,17,19)           0.0258         estimate D2E/DX2                !
 ! D78   D(32,16,17,18)         -0.0513         estimate D2E/DX2                !
 ! D79   D(32,16,17,19)        179.9356         estimate D2E/DX2                !
 ! D80   D(16,17,19,20)          0.0306         estimate D2E/DX2                !
 ! D81   D(16,17,19,33)        179.9996         estimate D2E/DX2                !
 ! D82   D(18,17,19,20)       -179.9826         estimate D2E/DX2                !
 ! D83   D(18,17,19,33)         -0.0135         estimate D2E/DX2                !
 ! D84   D(17,19,20,2)          -0.0274         estimate D2E/DX2                !
 ! D85   D(17,19,20,34)        179.9274         estimate D2E/DX2                !
 ! D86   D(33,19,20,2)        -179.9964         estimate D2E/DX2                !
 ! D87   D(33,19,20,34)         -0.0416         estimate D2E/DX2                !
 --------------------------------------------------------------------------------
 Trust Radius=3.00D-01 FncErr=1.00D-07 GrdErr=1.00D-06
 Number of steps in this run=    191 maximum allowed number of steps=    204.
 GradGradGradGradGradGradGradGradGradGradGradGradGradGradGradGradGradGrad

                          Input orientation:                          
 ---------------------------------------------------------------------
 Center     Atomic      Atomic             Coordinates (Angstroms)
 Number     Number       Type             X           Y           Z
 ---------------------------------------------------------------------
      1          8           0       -1.365086    0.431854   -0.846624
      2          6           0       -2.049623    1.605045   -0.701268
      3          6           0       -1.408002    2.874608   -0.766782
      4          6           0        0.052092    3.048370   -1.003541
      5          7           0        0.848431    2.092471   -1.256084
      6          6           0        2.182422    2.636042   -1.316581
      7          6           0        3.048818    1.846267   -2.328545
      8          8           0        2.334016    1.734010   -3.545644
      9          6           0        4.479266    2.402152   -2.530579
     10          6           0        5.533193    1.355574   -2.908526
     11          8           0        6.652828    1.937745   -3.412511
     12          8           0        5.410618    0.146537   -2.735575
     13          6           0        1.969280    4.158178   -1.481954
     14          6           0        1.953344    4.749451   -2.904556
     15          8           0        0.651400    4.276737   -0.981723
     16          6           0       -2.183437    4.044038   -0.601197
     17          6           0       -3.569753    3.959629   -0.376476
     18         17           0       -4.498545    5.399435   -0.177891
     19          6           0       -4.198284    2.702981   -0.313980
     20          6           0       -3.438484    1.529588   -0.475913
     21          1           0       -0.438735    0.612432   -0.991691
     22          1           0        2.642732    2.488716   -0.336074
     23          1           0        3.120111    0.832403   -1.929513
     24          1           0        1.438399    1.541559   -3.292592
     25          1           0        4.824275    2.855378   -1.601242
     26          1           0        4.487454    3.190534   -3.280891
     27          1           0        7.281420    1.265783   -3.626764
     28          1           0        2.662680    4.718308   -0.853378
     29          1           0        1.270424    4.207824   -3.559155
     30          1           0        1.627046    5.789144   -2.881754
     31          1           0        2.938304    4.736061   -3.365054
     32          1           0       -1.720413    5.019112   -0.646719
     33          1           0       -5.262622    2.639105   -0.141415
     34          1           0       -3.923581    0.565416   -0.426291
 ---------------------------------------------------------------------
                    Distance matrix (angstroms):
                    1          2          3          4          5
     1  O    0.000000
     2  C    1.366051   0.000000
     3  C    2.444435   1.423994   0.000000
     4  C    2.979794   2.567443   1.489336   0.000000
     5  N    2.797314   2.990672   2.437754   1.269518   0.000000
     6  C    4.202870   4.399065   3.640101   2.192331   1.441756
     7  C    4.866128   5.357268   4.833201   3.490137   2.460181
     8  O    4.760638   5.227179   4.798514   3.660192   2.752734
     9  C    6.393296   6.827016   6.163937   4.727506   3.860467
    10  C    7.258853   7.901476   7.421234   6.044584   5.022009
    11  O    8.552101   9.121084   8.535489   7.113813   6.193960
    12  O    7.039866   7.868980   7.603427   6.335170   5.175819
    13  C    5.040549   4.824888   3.683077   2.266310   2.361031
    14  C    5.821401   5.546667   4.402699   3.181555   3.316298
    15  O    4.343684   3.809477   2.500660   1.366942   2.210229
    16  C    3.711847   2.444710   1.412899   2.480086   3.664657
    17  C    4.186501   2.821409   2.450056   3.786999   4.876509
    18  Cl   5.911229   4.546266   4.033981   5.188208   6.378767
    19  C    3.669978   2.443808   2.831989   4.319778   5.170069
    20  C    2.375169   1.409047   2.452864   3.843073   4.393534
    21  H    0.954871   1.914311   2.471336   2.484924   1.979196
    22  H    4.533646   4.788782   4.091805   2.733156   2.054980
    23  H    4.631423   5.369517   5.101603   3.896239   2.683618
    24  H    3.882491   4.345721   4.032212   3.071169   2.190646
    25  H    6.689627   7.044413   6.287923   4.813338   4.063065
    26  H    6.912901   7.204277   6.416927   4.987882   4.306748
    27  H    9.120673   9.784784   9.288373   7.894435   6.905569
    28  H    5.881890   5.649898   4.469584   3.102646   3.216938
    29  H    5.344314   5.095556   4.092527   3.059384   3.155461
    30  H    6.464918   5.981563   4.709474   3.676956   4.112716
    31  H    6.586946   6.463624   5.395035   4.093319   3.975411
    32  H    4.605340   3.430336   2.170464   2.674494   3.941511
    33  H    4.534321   3.421415   3.912115   5.399717   6.235885
    34  H    2.596231   2.160592   3.431682   4.722738   5.078637
                    6          7          8          9         10
     6  C    0.000000
     7  C    1.548695   0.000000
     8  O    2.409432   1.415936   0.000000
     9  C    2.608446   1.547904   2.465536   0.000000
    10  C    3.924481   2.597937   3.283880   1.532622   0.000000
    11  O    4.986489   3.764603   4.325664   2.391203   1.358862
    12  O    4.316530   2.938172   3.555526   2.448926   1.227480
    13  C    1.545858   2.688318   3.204441   3.237788   4.753017
    14  C    2.653420   3.155999   3.106250   3.468422   4.932924
    15  O    2.268929   3.669976   3.983761   4.534929   6.006469
    16  C    4.642731   5.932151   5.866292   7.128107   8.491053
    17  C    5.976889   7.216811   7.060559   8.476591   9.800817
    18  Cl   7.319035   8.614697   8.453460   9.752945  11.155490
    19  C    6.459342   7.570530   7.352109   8.961232  10.161143
    20  C    5.790125   6.754082   6.541161   8.226408   9.297251
    21  H    3.327313   3.933517   3.933035   5.455090   6.315888
    22  H    1.093153   2.132507   3.311529   2.862901   4.031908
    23  H    2.123219   1.091893   2.010652   2.161642   2.656151
    24  H    2.378252   1.901495   0.950370   3.250870   4.116969
    25  H    2.666182   2.167838   3.352545   1.090006   2.112100
    26  H    3.078822   2.187165   2.613207   1.088385   2.144599
    27  H    5.763188   4.465115   4.970173   3.216368   1.892148
    28  H    2.186558   3.251744   4.032661   3.387856   4.875598
    29  H    2.886413   3.202193   2.692799   3.822968   5.170092
    30  H    3.563743   4.227736   4.169493   4.441869   5.908912
    31  H    3.029468   3.072047   3.067587   2.918569   4.285972
    32  H    4.621673   5.970012   5.969427   6.988092   8.435169
    33  H    7.537221   8.630884   8.373582  10.033376  11.218466
    34  H    6.508716   7.339857   7.088970   8.854912   9.808997
                   11         12         13         14         15
    11  O    0.000000
    12  O    2.282489   0.000000
    13  C    5.531093   5.432093   0.000000
    14  C    5.499896   5.759177   1.540667   0.000000
    15  O    6.884530   6.541002   1.414601   2.369769   0.000000
    16  C    9.508919   8.798622   4.246624   4.787069   2.869712
    17  C   10.853879  10.037534   5.651760   6.125325   4.276098
    18  Cl  12.116071  11.503312   6.713722   7.034490   5.331841
    19  C   11.310752  10.233793   6.443649   6.981522   5.142181
    20  C   10.517831   9.237181   6.096353   6.733323   4.952759
    21  H    7.609671   6.121529   4.314071   5.147429   3.823039
    22  H    5.084182   4.347942   2.133936   3.490455   2.753050
    23  H    3.987625   2.523206   3.547605   4.201823   4.342381
    24  H    5.230833   4.246749   3.225979   3.272050   3.666154
    25  H    2.732463   2.994717   3.140464   3.678095   4.451623
    26  H    2.505124   3.227308   3.242485   2.998927   4.602317
    27  H    0.944757   2.355171   6.417553   6.406709   7.747209
    28  H    5.495632   5.656405   1.090714   2.170589   2.063178
    29  H    5.843375   5.857776   2.192174   1.090064   2.651621
    30  H    6.354011   6.795278   2.176376   1.089932   2.617132
    31  H    4.650862   5.250934   2.195227   1.087375   3.334843
    32  H    9.341070   8.885770   3.879776   4.320536   2.507757
    33  H   12.376184  11.263242   7.510328   8.009911   6.193837
    34  H   11.075253   9.624735   6.981989   7.627988   5.917167
                   16         17         18         19         20
    16  C    0.000000
    17  C    1.406946   0.000000
    18  Cl   2.715882   1.724857   0.000000
    19  C    2.437321   1.406457   2.716531   0.000000
    20  C    2.813058   2.435615   4.023464   1.407256   0.000000
    21  H    3.869417   4.624445   6.329275   4.354756   3.178946
    22  H    5.077521   6.384371   7.713310   6.844406   6.157976
    23  H    6.340871   7.546241   9.053722   7.724501   6.753828
    24  H    5.159816   6.279521   7.735107   6.480218   5.631857
    25  H    7.177815   8.554480   9.767964   9.115198   8.443771
    26  H    7.239476   8.599170   9.759920   9.191426   8.570130
    27  H   10.317765  11.643416  12.951810  12.034271  11.176484
    28  H    4.899294   6.296527   7.225189   7.171145   6.894535
    29  H    4.550329   5.798134   6.792193   6.534713   6.233229
    30  H    4.771385   6.052294   6.707132   7.074767   7.042122
    31  H    5.860890   7.203419   8.118177   8.023301   7.700132
    32  H    1.080385   2.148393   2.842967   3.408082   3.893292
    33  H    3.415643   2.159825   2.864361   1.080127   2.161110
    34  H    3.893521   3.412969   4.874426   2.158068   1.080467
                   21         22         23         24         25
    21  H    0.000000
    22  H    3.666840   0.000000
    23  H    3.686907   2.347405   0.000000
    24  H    3.111439   3.329943   2.277947   0.000000
    25  H    5.753402   2.548376   2.665401   4.006363   0.000000
    26  H    6.012852   3.545066   3.042471   3.466409   1.745565
    27  H    8.183598   5.817356   4.514972   5.859063   3.559089
    28  H    5.147439   2.288904   4.058025   4.188122   2.949966
    29  H    4.737081   3.902155   4.179778   2.684817   4.276960
    30  H    5.885417   4.290097   5.263581   4.271575   4.524264
    31  H    5.834515   3.783205   4.163217   3.529845   3.194509
    32  H    4.602231   5.053359   6.527233   5.391856   6.958865
    33  H    5.300968   7.909180   8.759662   7.485867  10.194281
    34  H    3.530728   6.842784   7.207257   6.157870   9.118630
                   26         27         28         29         30
    26  H    0.000000
    27  H    3.410358   0.000000
    28  H    3.399517   6.398778   0.000000
    29  H    3.385497   6.692701   3.085482   0.000000
    30  H    3.885102   7.279271   2.516652   1.756879   0.000000
    31  H    2.189886   5.565427   2.526816   1.760265   1.749846
    32  H    6.987143  10.198095   4.398260   4.252714   4.098025
    33  H   10.257893  13.091473   8.224378   7.538071   8.056037
    34  H    9.262046  11.674142   7.797932   7.075285   8.007877
                   31         32         33         34
    31  H    0.000000
    32  H    5.401213   0.000000
    33  H    9.057829   4.297326   0.000000
    34  H    8.550794   4.973726   2.484828   0.000000
 Stoichiometry    C13H14ClNO5
 Framework group  C1[X(C13H14ClNO5)]
 Deg. of freedom    96
 Full point group                 C1      NOp   1
 Largest Abelian subgroup         C1      NOp   1
 Largest concise Abelian subgroup C1      NOp   1
                         Standard orientation:                         
 ---------------------------------------------------------------------
 Center     Atomic      Atomic             Coordinates (Angstroms)
 Number     Number       Type             X           Y           Z
 ---------------------------------------------------------------------
      1          8           0       -1.391157    2.739198   -0.056289
      2          6           0       -2.328342    1.745761   -0.026901
      3          6           0       -1.987167    0.371786   -0.180372
      4          6           0       -0.593215   -0.113580   -0.378965
      5          7           0        0.430737    0.636039   -0.343324
      6          6           0        1.577162   -0.169405   -0.683371
      7          6           0        2.840189    0.338668    0.054925
      8          8           0        2.531987    0.488170    1.428800
      9          6           0        4.113301   -0.510482   -0.177751
     10          6           0        5.432793    0.264680   -0.094107
     11          8           0        6.492690   -0.573177    0.051215
     12          8           0        5.534489    1.483805   -0.194609
     13          6           0        1.090754   -1.625371   -0.501028
     14          6           0        1.339667   -2.321289    0.850784
     15          8           0       -0.306767   -1.431293   -0.602820
     16          6           0       -3.014191   -0.597846   -0.144049
     17          6           0       -4.355294   -0.215613    0.042601
     18         17           0       -5.594045   -1.415128    0.084906
     19          6           0       -4.686205    1.142854    0.194869
     20          6           0       -3.673957    2.119831    0.159656
     21          1           0       -0.523560    2.363088   -0.188938
     22          1           0        1.769271   -0.034520   -1.751025
     23          1           0        3.018218    1.347604   -0.322677
     24          1           0        1.665915    0.878929    1.449515
     25          1           0        4.080405   -0.942516   -1.177940
     26          1           0        4.155982   -1.345751    0.518730
     27          1           0        7.287023   -0.063303    0.091589
     28          1           0        1.443653   -2.258065   -1.316391
     29          1           0        0.999723   -1.711004    1.687581
     30          1           0        0.800791   -3.267536    0.897481
     31          1           0        2.391648   -2.547167    1.007942
     32          1           0       -2.781339   -1.646676   -0.257928
     33          1           0       -5.716044    1.435410    0.338111
     34          1           0       -3.930983    3.162845    0.275707
 ---------------------------------------------------------------------
 Rotational constants (GHZ):      0.8229436      0.1192369      0.1075039
 Standard basis: 6-31+G(d,p) (6D, 7F)
 There are   454 symmetry adapted basis functions of A   symmetry.
 Integral buffers will be    131072 words long.
 Raffenetti 2 integral format.
 Two-electron integral symmetry is turned on.
   454 basis functions,   762 primitive gaussians,   454 cartesian basis functions
    78 alpha electrons       78 beta electrons
       nuclear repulsion energy      1646.9816255702 Hartrees.
 NAtoms=   34 NActive=   34 NUniq=   34 SFac= 1.00D+00 NAtFMM=   50 NAOKFM=F Big=F
 Using the following non-standard input for PCM:
 radii=UA0
 --- end of non-standard input.
 ------------------------------------------------------------------------------
 United Atom Topological Model (UA0  parameters set).
  Nord Group  Hybr  Charge Alpha Radius          Bonded to
    1   OH    *     0.00   1.10  1.850   C2   [s]
    2   C     *     0.00   1.10  1.925   O1   [s]  C3   [s]  C20  [s]
    3   C     *     0.00   1.10  1.925   C2   [s]  C4   [s]  C16  [s]
    4   C     *     0.00   1.10  1.925   C3   [s]  N5   [d]  O15  [s]
    5   N     *     0.00   1.10  1.830   C4   [d]  C6   [s]
    6   CH    *     0.00   1.10  2.125   N5   [s]  C7   [s]  C13  [s]
    7   CH    *     0.00   1.10  2.125   C6   [s]  O8   [s]  C9   [s]
    8   OH    *     0.00   1.10  1.850   C7   [s]
    9   CH2   *     0.00   1.10  2.325   C7   [s]  C10  [s]
   10   C     *     0.00   1.10  1.925   C9   [s]  O11  [s]  O12  [d]
   11   OH    *     0.00   1.10  1.850   C10  [s]
   12   O     *     0.00   1.10  1.750   C10  [d]
   13   CH    *     0.00   1.10  2.125   C6   [s]  C14  [s]  O15  [s]
   14   CH3   *     0.00   1.10  2.525   C13  [s]
   15   O     *     0.00   1.10  1.750   C4   [s]  C13  [s]
   16   CH    *     0.00   1.10  2.125   C3   [s]  C17  [s]
   17   C     *     0.00   1.10  1.925   C16  [s] Cl18  [s]  C19  [s]
   18  Cl     *     0.00   1.10  1.973   C17  [s]
   19   CH    *     0.00   1.10  2.125   C17  [s]  C20  [s]
   20   CH    *     0.00   1.10  2.125   C2   [s]  C19  [s]
 ------------------------------------------------------------------------------
 Polarizable Continuum Model (PCM)
 =================================
 Model                : PCM.
 Atomic radii         : UA0 (Simple United Atom Topological Model).
 Polarization charges : Total charges.
 Charge compensation  : None.
 Solution method      : Matrix inversion.
 Cavity type          : Scaled VdW (van der Waals Surface) (Alpha=1.100).
 Cavity algorithm     : GePol (No added spheres)
                        Default sphere list used, NSphG=   20.
                        Lebedev-Laikov grids with approx.  5.0 points / Ang**2.
                        Smoothing algorithm: Karplus/York (Gamma=1.0000).
                        Polarization charges: spherical gaussians, with
                                              point-specific exponents (IZeta= 3).
                        Self-potential: point-specific (ISelfS= 7).
                        Self-field    : sphere-specific E.n sum rule (ISelfD= 2).
 1st derivatives      : Analytical E(r).r(x)/FMM algorithm (CHGder, D1EAlg=3).
                        Cavity 1st derivative terms included.
 Solvent              : Methanol, Eps=  32.613000 Eps(inf)=   1.765709
 ------------------------------------------------------------------------------
 Spheres list:
 ISph  on   Nord    Re0     Alpha      Xe            Ye            Ze
    1   O      1    1.850   1.100     -1.391157      2.739198     -0.056289
    2   C      2    1.925   1.100     -2.328342      1.745761     -0.026901
    3   C      3    1.925   1.100     -1.987167      0.371786     -0.180372
    4   C      4    1.925   1.100     -0.593215     -0.113580     -0.378965
    5   N      5    1.830   1.100      0.430737      0.636039     -0.343324
    6   C      6    2.125   1.100      1.577162     -0.169405     -0.683371
    7   C      7    2.125   1.100      2.840189      0.338668      0.054925
    8   O      8    1.850   1.100      2.531987      0.488170      1.428800
    9   C      9    2.325   1.100      4.113301     -0.510482     -0.177751
   10   C     10    1.925   1.100      5.432793      0.264680     -0.094107
   11   O     11    1.850   1.100      6.492690     -0.573177      0.051215
   12   O     12    1.750   1.100      5.534489      1.483805     -0.194609
   13   C     13    2.125   1.100      1.090754     -1.625371     -0.501028
   14   C     14    2.525   1.100      1.339667     -2.321289      0.850784
   15   O     15    1.750   1.100     -0.306767     -1.431293     -0.602820
   16   C     16    2.125   1.100     -3.014191     -0.597846     -0.144049
   17   C     17    1.925   1.100     -4.355294     -0.215613      0.042601
   18  Cl     18    1.973   1.100     -5.594045     -1.415128      0.084906
   19   C     19    2.125   1.100     -4.686205      1.142854      0.194869
   20   C     20    2.125   1.100     -3.673957      2.119831      0.159656
 ------------------------------------------------------------------------------
 One-electron integrals computed using PRISM.
 NBasis=   454 RedAO= T  NBF=   454
 NBsUse=   453 1.00D-06 NBFU=   453
 Harris functional with IExCor= 1009 diagonalized for initial guess.
 ExpMin= 4.38D-02 ExpMax= 2.52D+04 ExpMxC= 3.78D+03 IAcc=3 IRadAn=         5 AccDes= 0.00D+00
 HarFok:  IExCor= 1009 AccDes= 0.00D+00 IRadAn=         5 IDoV= 1
 ScaDFX=  1.000000  1.000000  1.000000  1.000000
 FoFCou: FMM=F IPFlag=           0 FMFlag=      100000 FMFlg1=           0
         NFxFlg=           0 DoJE=T BraDBF=F KetDBF=T FulRan=T
         Omega=  0.000000  0.000000  1.000000  0.000000  0.000000 ICntrl=     500 IOpCl=  0
         NMat0=    1 NMatS0=    1 NMatT0=    0 NMatD0=    1 NMtDS0=    0 NMtDT0=    0
         I1Cent=           4 NGrid=           0.
 Petite list used in FoFCou.
 Initial guess orbital symmetries:
       Occupied  (A) (A) (A) (A) (A) (A) (A) (A) (A) (A) (A) (A)
                 (A) (A) (A) (A) (A) (A) (A) (A) (A) (A) (A) (A)
                 (A) (A) (A) (A) (A) (A) (A) (A) (A) (A) (A) (A)
                 (A) (A) (A) (A) (A) (A) (A) (A) (A) (A) (A) (A)
                 (A) (A) (A) (A) (A) (A) (A) (A) (A) (A) (A) (A)
                 (A) (A) (A) (A) (A) (A) (A) (A) (A) (A) (A) (A)
                 (A) (A) (A) (A) (A) (A)
       Virtual   (A) (A) (A) (A) (A) (A) (A) (A) (A) (A) (A) (A)
                 (A) (A) (A) (A) (A) (A) (A) (A) (A) (A) (A) (A)
                 (A) (A) (A) (A) (A) (A) (A) (A) (A) (A) (A) (A)
                 (A) (A) (A) (A) (A) (A) (A) (A) (A) (A) (A) (A)
                 (A) (A) (A) (A) (A) (A) (A) (A) (A) (A) (A) (A)
                 (A) (A) (A) (A) (A) (A) (A) (A) (A) (A) (A) (A)
                 (A) (A) (A) (A) (A) (A) (A) (A) (A) (A) (A) (A)
                 (A) (A) (A) (A) (A) (A) (A) (A) (A) (A) (A) (A)
                 (A) (A) (A) (A) (A) (A) (A) (A) (A) (A) (A) (A)
                 (A) (A) (A) (A) (A) (A) (A) (A) (A) (A) (A) (A)
                 (A) (A) (A) (A) (A) (A) (A) (A) (A) (A) (A) (A)
                 (A) (A) (A) (A) (A) (A) (A) (A) (A) (A) (A) (A)
                 (A) (A) (A) (A) (A) (A) (A) (A) (A) (A) (A) (A)
                 (A) (A) (A) (A) (A) (A) (A) (A) (A) (A) (A) (A)
                 (A) (A) (A) (A) (A) (A) (A) (A) (A) (A) (A) (A)
                 (A) (A) (A) (A) (A) (A) (A) (A) (A) (A) (A) (A)
                 (A) (A) (A) (A) (A) (A) (A) (A) (A) (A) (A) (A)
                 (A) (A) (A) (A) (A) (A) (A) (A) (A) (A) (A) (A)
                 (A) (A) (A) (A) (A) (A) (A) (A) (A) (A) (A) (A)
                 (A) (A) (A) (A) (A) (A) (A) (A) (A) (A) (A) (A)
                 (A) (A) (A) (A) (A) (A) (A) (A) (A) (A) (A) (A)
                 (A) (A) (A) (A) (A) (A) (A) (A) (A) (A) (A) (A)
                 (A) (A) (A) (A) (A) (A) (A) (A) (A) (A) (A) (A)
                 (A) (A) (A) (A) (A) (A) (A) (A) (A) (A) (A) (A)
                 (A) (A) (A) (A) (A) (A) (A) (A) (A) (A) (A) (A)
                 (A) (A) (A) (A) (A) (A) (A) (A) (A) (A) (A) (A)
                 (A) (A) (A) (A) (A) (A) (A) (A) (A) (A) (A) (A)
                 (A) (A) (A) (A) (A) (A) (A) (A) (A) (A) (A) (A)
                 (A) (A) (A) (A) (A) (A) (A) (A) (A) (A) (A) (A)
                 (A) (A) (A) (A) (A) (A) (A) (A) (A) (A) (A) (A)
                 (A) (A) (A) (A) (A) (A) (A) (A) (A) (A) (A) (A)
                 (A) (A) (A)
 The electronic state of the initial guess is 1-A.
 Requested convergence on RMS density matrix=1.00D-08 within 128 cycles.
 Requested convergence on MAX density matrix=1.00D-06.
 Requested convergence on             energy=1.00D-06.
 No special actions if energy rises.
 Error on total polarization charges =  0.01546
 SCF Done:  E(RM062X) =  -1394.55894725     A.U. after   16 cycles
             Convg  =    0.4327D-08             -V/T =  2.0067

 **********************************************************************

            Population analysis using the SCF density.

 **********************************************************************

 Orbital symmetries:
       Occupied  (A) (A) (A) (A) (A) (A) (A) (A) (A) (A) (A) (A)
                 (A) (A) (A) (A) (A) (A) (A) (A) (A) (A) (A) (A)
                 (A) (A) (A) (A) (A) (A) (A) (A) (A) (A) (A) (A)
                 (A) (A) (A) (A) (A) (A) (A) (A) (A) (A) (A) (A)
                 (A) (A) (A) (A) (A) (A) (A) (A) (A) (A) (A) (A)
                 (A) (A) (A) (A) (A) (A) (A) (A) (A) (A) (A) (A)
                 (A) (A) (A) (A) (A) (A)
       Virtual   (A) (A) (A) (A) (A) (A) (A) (A) (A) (A) (A) (A)
                 (A) (A) (A) (A) (A) (A) (A) (A) (A) (A) (A) (A)
                 (A) (A) (A) (A) (A) (A) (A) (A) (A) (A) (A) (A)
                 (A) (A) (A) (A) (A) (A) (A) (A) (A) (A) (A) (A)
                 (A) (A) (A) (A) (A) (A) (A) (A) (A) (A) (A) (A)
                 (A) (A) (A) (A) (A) (A) (A) (A) (A) (A) (A) (A)
                 (A) (A) (A) (A) (A) (A) (A) (A) (A) (A) (A) (A)
                 (A) (A) (A) (A) (A) (A) (A) (A) (A) (A) (A) (A)
                 (A) (A) (A) (A) (A) (A) (A) (A) (A) (A) (A) (A)
                 (A) (A) (A) (A) (A) (A) (A) (A) (A) (A) (A) (A)
                 (A) (A) (A) (A) (A) (A) (A) (A) (A) (A) (A) (A)
                 (A) (A) (A) (A) (A) (A) (A) (A) (A) (A) (A) (A)
                 (A) (A) (A) (A) (A) (A) (A) (A) (A) (A) (A) (A)
                 (A) (A) (A) (A) (A) (A) (A) (A) (A) (A) (A) (A)
                 (A) (A) (A) (A) (A) (A) (A) (A) (A) (A) (A) (A)
                 (A) (A) (A) (A) (A) (A) (A) (A) (A) (A) (A) (A)
                 (A) (A) (A) (A) (A) (A) (A) (A) (A) (A) (A) (A)
                 (A) (A) (A) (A) (A) (A) (A) (A) (A) (A) (A) (A)
                 (A) (A) (A) (A) (A) (A) (A) (A) (A) (A) (A) (A)
                 (A) (A) (A) (A) (A) (A) (A) (A) (A) (A) (A) (A)
                 (A) (A) (A) (A) (A) (A) (A) (A) (A) (A) (A) (A)
                 (A) (A) (A) (A) (A) (A) (A) (A) (A) (A) (A) (A)
                 (A) (A) (A) (A) (A) (A) (A) (A) (A) (A) (A) (A)
                 (A) (A) (A) (A) (A) (A) (A) (A) (A) (A) (A) (A)
                 (A) (A) (A) (A) (A) (A) (A) (A) (A) (A) (A) (A)
                 (A) (A) (A) (A) (A) (A) (A) (A) (A) (A) (A) (A)
                 (A) (A) (A) (A) (A) (A) (A) (A) (A) (A) (A) (A)
                 (A) (A) (A) (A) (A) (A) (A) (A) (A) (A) (A) (A)
                 (A) (A) (A) (A) (A) (A) (A) (A) (A) (A) (A) (A)
                 (A) (A) (A) (A) (A) (A) (A) (A) (A) (A) (A) (A)
                 (A) (A) (A) (A) (A) (A) (A) (A) (A) (A) (A) (A)
                 (A) (A) (A)
 The electronic state is 1-A.
 Alpha  occ. eigenvalues -- -102.68294 -19.70284 -19.69972 -19.68304 -19.65938
 Alpha  occ. eigenvalues --  -19.64928 -14.77427 -10.71279 -10.67865 -10.65006
 Alpha  occ. eigenvalues --  -10.62700 -10.62347 -10.61887 -10.60042 -10.59594
 Alpha  occ. eigenvalues --  -10.58914 -10.58681 -10.58034 -10.57635 -10.54540
 Alpha  occ. eigenvalues --   -9.82976  -7.55379  -7.54718  -7.54707  -1.24471
 Alpha  occ. eigenvalues --   -1.24349  -1.19758  -1.16220  -1.15149  -1.04524
 Alpha  occ. eigenvalues --   -1.00936  -0.95443  -0.92077  -0.88997  -0.86631
 Alpha  occ. eigenvalues --   -0.83641  -0.81557  -0.76991  -0.73652  -0.71963
 Alpha  occ. eigenvalues --   -0.69975  -0.68262  -0.66743  -0.63659  -0.61822
 Alpha  occ. eigenvalues --   -0.60112  -0.59820  -0.58635  -0.57978  -0.57054
 Alpha  occ. eigenvalues --   -0.55267  -0.54801  -0.53894  -0.52755  -0.51961
 Alpha  occ. eigenvalues --   -0.51208  -0.50244  -0.49078  -0.48280  -0.47499
 Alpha  occ. eigenvalues --   -0.47142  -0.46539  -0.46258  -0.45784  -0.45127
 Alpha  occ. eigenvalues --   -0.44656  -0.43813  -0.42236  -0.41128  -0.40805
 Alpha  occ. eigenvalues --   -0.39097  -0.38915  -0.37836  -0.37178  -0.34795
 Alpha  occ. eigenvalues --   -0.34422  -0.31949  -0.28743
 Alpha virt. eigenvalues --   -0.03418   0.00464   0.00657   0.01566   0.02146
 Alpha virt. eigenvalues --    0.02653   0.02735   0.03229   0.03413   0.04355
 Alpha virt. eigenvalues --    0.04714   0.04993   0.05227   0.05480   0.06216
 Alpha virt. eigenvalues --    0.06394   0.06834   0.06994   0.07618   0.08000
 Alpha virt. eigenvalues --    0.08218   0.09243   0.09329   0.09710   0.09957
 Alpha virt. eigenvalues --    0.10426   0.10685   0.11065   0.12463   0.12609
 Alpha virt. eigenvalues --    0.12868   0.13428   0.13696   0.14007   0.14461
 Alpha virt. eigenvalues --    0.14838   0.15490   0.15976   0.16308   0.16588
 Alpha virt. eigenvalues --    0.17024   0.17193   0.17789   0.18146   0.18476
 Alpha virt. eigenvalues --    0.18558   0.19286   0.19592   0.19724   0.19972
 Alpha virt. eigenvalues --    0.20358   0.21015   0.21372   0.21396   0.22193
 Alpha virt. eigenvalues --    0.22337   0.22504   0.22785   0.23450   0.23622
 Alpha virt. eigenvalues --    0.24045   0.24514   0.24865   0.25004   0.25327
 Alpha virt. eigenvalues --    0.25757   0.26347   0.26750   0.27015   0.27145
 Alpha virt. eigenvalues --    0.27616   0.28149   0.28578   0.28652   0.28954
 Alpha virt. eigenvalues --    0.29716   0.29898   0.30497   0.30758   0.31262
 Alpha virt. eigenvalues --    0.31445   0.31678   0.31984   0.32264   0.32782
 Alpha virt. eigenvalues --    0.33517   0.34088   0.34444   0.34549   0.35408
 Alpha virt. eigenvalues --    0.35495   0.36123   0.36767   0.37865   0.38507
 Alpha virt. eigenvalues --    0.38713   0.39446   0.40007   0.40140   0.40872
 Alpha virt. eigenvalues --    0.40950   0.41683   0.42114   0.42596   0.43375
 Alpha virt. eigenvalues --    0.43578   0.44431   0.45374   0.46918   0.47497
 Alpha virt. eigenvalues --    0.48577   0.49566   0.50407   0.51636   0.53345
 Alpha virt. eigenvalues --    0.54893   0.55367   0.59449   0.60377   0.64448
 Alpha virt. eigenvalues --    0.67958   0.68732   0.69909   0.70670   0.70972
 Alpha virt. eigenvalues --    0.71359   0.71710   0.72300   0.73829   0.74534
 Alpha virt. eigenvalues --    0.74782   0.75367   0.75929   0.77085   0.77752
 Alpha virt. eigenvalues --    0.77984   0.79640   0.80100   0.80689   0.81777
 Alpha virt. eigenvalues --    0.82717   0.83046   0.84457   0.85637   0.86167
 Alpha virt. eigenvalues --    0.86664   0.88055   0.90207   0.91478   0.93125
 Alpha virt. eigenvalues --    0.93545   0.94318   0.94586   0.95581   0.97519
 Alpha virt. eigenvalues --    0.98278   0.98988   0.99022   1.00519   1.01324
 Alpha virt. eigenvalues --    1.02732   1.04323   1.05213   1.06006   1.07098
 Alpha virt. eigenvalues --    1.07958   1.08857   1.09967   1.10639   1.11596
 Alpha virt. eigenvalues --    1.12257   1.14372   1.14554   1.15791   1.16746
 Alpha virt. eigenvalues --    1.17515   1.18256   1.19343   1.20369   1.21286
 Alpha virt. eigenvalues --    1.21888   1.22764   1.23071   1.25026   1.26143
 Alpha virt. eigenvalues --    1.26524   1.27403   1.28179   1.29199   1.30944
 Alpha virt. eigenvalues --    1.31034   1.32683   1.33050   1.34479   1.34926
 Alpha virt. eigenvalues --    1.35343   1.36672   1.37841   1.39799   1.39995
 Alpha virt. eigenvalues --    1.40385   1.41245   1.42192   1.43004   1.43216
 Alpha virt. eigenvalues --    1.43764   1.44286   1.44628   1.44853   1.45149
 Alpha virt. eigenvalues --    1.47173   1.47816   1.49910   1.51110   1.54198
 Alpha virt. eigenvalues --    1.54827   1.55721   1.56942   1.57908   1.59272
 Alpha virt. eigenvalues --    1.62543   1.62655   1.64322   1.64927   1.65906
 Alpha virt. eigenvalues --    1.66367   1.67790   1.70214   1.71669   1.74444
 Alpha virt. eigenvalues --    1.75650   1.77169   1.77563   1.78392   1.79834
 Alpha virt. eigenvalues --    1.81459   1.83504   1.84559   1.85732   1.86591
 Alpha virt. eigenvalues --    1.87862   1.88628   1.90347   1.92534   1.93292
 Alpha virt. eigenvalues --    1.94307   1.95644   1.96463   1.96980   1.97508
 Alpha virt. eigenvalues --    1.98877   1.99583   2.00042   2.02030   2.02412
 Alpha virt. eigenvalues --    2.03244   2.05567   2.07612   2.07872   2.09177
 Alpha virt. eigenvalues --    2.09856   2.10886   2.11042   2.12282   2.15343
 Alpha virt. eigenvalues --    2.17167   2.18960   2.20296   2.21489   2.22226
 Alpha virt. eigenvalues --    2.24040   2.24672   2.25164   2.26236   2.28446
 Alpha virt. eigenvalues --    2.28599   2.31508   2.32538   2.37124   2.38643
 Alpha virt. eigenvalues --    2.39014   2.40612   2.42216   2.42617   2.44597
 Alpha virt. eigenvalues --    2.44736   2.46123   2.46399   2.47265   2.48178
 Alpha virt. eigenvalues --    2.49402   2.50186   2.52335   2.53372   2.53745
 Alpha virt. eigenvalues --    2.56924   2.57097   2.57942   2.59648   2.60132
 Alpha virt. eigenvalues --    2.60463   2.62634   2.64003   2.65578   2.66147
 Alpha virt. eigenvalues --    2.67370   2.69155   2.69524   2.69837   2.71262
 Alpha virt. eigenvalues --    2.72058   2.74242   2.75528   2.76139   2.76505
 Alpha virt. eigenvalues --    2.77407   2.78539   2.80503   2.82104   2.82844
 Alpha virt. eigenvalues --    2.84042   2.86811   2.87746   2.90282   2.90980
 Alpha virt. eigenvalues --    2.93053   2.98280   3.00449   3.01989   3.02500
 Alpha virt. eigenvalues --    3.03227   3.05259   3.05849   3.08038   3.10957
 Alpha virt. eigenvalues --    3.13180   3.15173   3.20452   3.23362   3.25188
 Alpha virt. eigenvalues --    3.27729   3.32532   3.35250   3.38974   3.41358
 Alpha virt. eigenvalues --    3.42711   3.46664   3.47577   3.50116   3.52084
 Alpha virt. eigenvalues --    3.52542   3.56682   3.64418   3.67698   3.76458
 Alpha virt. eigenvalues --    4.22488   4.27454   4.29423   4.31108   4.32728
 Alpha virt. eigenvalues --    4.35394   4.39438   4.40430   4.44803   4.46603
 Alpha virt. eigenvalues --    4.50277   4.53986   4.57976   4.62621   4.69069
 Alpha virt. eigenvalues --    4.70217   4.74022   4.78287   4.89046   4.95556
          Condensed to atoms (all electrons):
              1          2          3          4          5          6
     1  O    8.423395   0.405811   0.117147  -0.065356   0.005224  -0.011225
     2  C    0.405811  15.518228  -4.408853   1.024180  -0.117213  -0.271208
     3  C    0.117147  -4.408853  14.374740  -1.826259  -0.353333   0.716955
     4  C   -0.065356   1.024180  -1.826259   8.652946   0.586856  -2.007438
     5  N    0.005224  -0.117213  -0.353333   0.586856   7.492648  -0.725660
     6  C   -0.011225  -0.271208   0.716955  -2.007438  -0.725660  14.156034
     7  C   -0.008988   0.052034  -0.222255  -0.071923  -0.010901  -2.359891
     8  O    0.000799   0.022427  -0.039775   0.091824   0.021474  -0.123737
     9  C   -0.000394  -0.052625   0.069622  -0.122729   0.120448   0.198886
    10  C   -0.000046   0.001234  -0.003387  -0.011353   0.001288  -0.361174
    11  O    0.000000   0.000081  -0.000184   0.001108   0.000004   0.006931
    12  O   -0.000009   0.000187  -0.000944   0.002728   0.000879  -0.033141
    13  C   -0.000950   0.308443  -0.242604   0.414677   0.393915  -2.735101
    14  C   -0.000519  -0.009408   0.039937  -0.046516   0.011567   0.132938
    15  O   -0.003068  -0.048627  -0.234522   0.257946  -0.144388  -0.087060
    16  C    0.142440  -4.262154   1.814432  -2.704070   0.048040  -0.487242
    17  C   -0.029635  -0.488376  -1.786701   0.797964   0.085795   0.033669
    18  Cl  -0.000416  -0.013715  -0.018760   0.010791   0.000177   0.003565
    19  C    0.053092   0.382086  -0.431079   0.241478  -0.008090  -0.066304
    20  C   -0.666426  -1.835350  -1.495741   0.040634  -0.001464  -0.073214
    21  H    0.193443   0.065492  -0.152498   0.023253   0.056026   0.007333
    22  H    0.000028   0.024450  -0.045484   0.099934   0.002688   0.155108
    23  H   -0.000052   0.006320  -0.007552  -0.008754  -0.016466   0.170355
    24  H   -0.000542  -0.002199  -0.005161   0.065023   0.019991  -0.157970
    25  H    0.000000  -0.000152  -0.000165  -0.003305   0.002209  -0.017767
    26  H    0.000000   0.000374   0.000161  -0.001642  -0.002305   0.007853
    27  H    0.000000   0.000000   0.000000  -0.000046   0.000004  -0.001606
    28  H    0.000008  -0.005354   0.005803   0.024149   0.006932  -0.054385
    29  H    0.000019  -0.004020   0.002699   0.003635   0.013532  -0.028711
    30  H   -0.000002   0.000868   0.004651  -0.004504  -0.004334   0.102255
    31  H   -0.000001  -0.000826   0.000178  -0.001125  -0.011938  -0.019197
    32  H   -0.000479   0.034297   0.007919   0.056181   0.000026   0.006652
    33  H   -0.000414  -0.053214   0.006489  -0.009666   0.000051  -0.000073
    34  H   -0.003539   0.024509   0.013604  -0.002617   0.000430   0.000185
              7          8          9         10         11         12
     1  O   -0.008988   0.000799  -0.000394  -0.000046   0.000000  -0.000009
     2  C    0.052034   0.022427  -0.052625   0.001234   0.000081   0.000187
     3  C   -0.222255  -0.039775   0.069622  -0.003387  -0.000184  -0.000944
     4  C   -0.071923   0.091824  -0.122729  -0.011353   0.001108   0.002728
     5  N   -0.010901   0.021474   0.120448   0.001288   0.000004   0.000879
     6  C   -2.359891  -0.123737   0.198886  -0.361174   0.006931  -0.033141
     7  C    8.691776   0.162217  -0.908481   0.353598   0.026638   0.091106
     8  O    0.162217   8.277035  -0.115922  -0.016637  -0.002413   0.001418
     9  C   -0.908481  -0.115922   7.195984  -0.389172  -0.035758  -0.186379
    10  C    0.353598  -0.016637  -0.389172   5.428902   0.063577   0.506251
    11  O    0.026638  -0.002413  -0.035758   0.063577   8.332196  -0.127494
    12  O    0.091106   0.001418  -0.186379   0.506251  -0.127494   8.236067
    13  C    0.107140   0.070972  -0.091352  -0.101339   0.001021  -0.002938
    14  C   -0.353033   0.035703  -0.009698  -0.011714  -0.001688  -0.000457
    15  O    0.121973  -0.013464   0.014334   0.007276   0.000013   0.000049
    16  C   -0.024369  -0.008578   0.036204   0.000217  -0.000013   0.000091
    17  C    0.037520  -0.001547   0.002726   0.000300   0.000000   0.000007
    18  Cl  -0.000077  -0.000004   0.000050  -0.000002   0.000000   0.000000
    19  C   -0.000082   0.000402  -0.000166   0.000049   0.000000   0.000001
    20  C   -0.029155   0.000995  -0.005561  -0.000821   0.000001   0.000003
    21  H   -0.007215  -0.000536  -0.000588  -0.000101   0.000000   0.000001
    22  H    0.005125   0.007613  -0.028967   0.004316   0.000043   0.000038
    23  H    0.240986  -0.053949  -0.039038  -0.054770   0.000576  -0.003324
    24  H    0.041446   0.247987   0.017247   0.002417   0.000076   0.000481
    25  H   -0.033802   0.005386   0.373080   0.002050   0.001174  -0.000236
    26  H    0.014936  -0.003838   0.314200  -0.003317   0.002538   0.003450
    27  H    0.003469  -0.000033   0.018023  -0.003207   0.240936   0.003197
    28  H   -0.012403  -0.000867   0.021753   0.003531   0.000018   0.000018
    29  H   -0.044562  -0.006205   0.017009   0.000441   0.000005   0.000015
    30  H   -0.027546   0.000685   0.005455  -0.000823  -0.000001   0.000000
    31  H    0.092356  -0.004461  -0.040722   0.008159   0.000012  -0.000037
    32  H   -0.000106   0.000003   0.000004   0.000003   0.000000   0.000000
    33  H   -0.000003   0.000000   0.000000   0.000000   0.000000   0.000000
    34  H   -0.000020   0.000000   0.000001   0.000000   0.000000   0.000000
             13         14         15         16         17         18
     1  O   -0.000950  -0.000519  -0.003068   0.142440  -0.029635  -0.000416
     2  C    0.308443  -0.009408  -0.048627  -4.262154  -0.488376  -0.013715
     3  C   -0.242604   0.039937  -0.234522   1.814432  -1.786701  -0.018760
     4  C    0.414677  -0.046516   0.257946  -2.704070   0.797964   0.010791
     5  N    0.393915   0.011567  -0.144388   0.048040   0.085795   0.000177
     6  C   -2.735101   0.132938  -0.087060  -0.487242   0.033669   0.003565
     7  C    0.107140  -0.353033   0.121973  -0.024369   0.037520  -0.000077
     8  O    0.070972   0.035703  -0.013464  -0.008578  -0.001547  -0.000004
     9  C   -0.091352  -0.009698   0.014334   0.036204   0.002726   0.000050
    10  C   -0.101339  -0.011714   0.007276   0.000217   0.000300  -0.000002
    11  O    0.001021  -0.001688   0.000013  -0.000013   0.000000   0.000000
    12  O   -0.002938  -0.000457   0.000049   0.000091   0.000007   0.000000
    13  C    8.035194  -0.073355  -0.054852  -0.194268  -0.039265  -0.002883
    14  C   -0.073355   5.618339  -0.136518   0.043030  -0.010557   0.000278
    15  O   -0.054852  -0.136518   8.565290  -0.007125   0.111114  -0.000424
    16  C   -0.194268   0.043030  -0.007125  18.449058  -3.085562  -0.116941
    17  C   -0.039265  -0.010557   0.111114  -3.085562   9.209908  -0.090753
    18  Cl  -0.002883   0.000278  -0.000424  -0.116941  -0.090753  17.027341
    19  C    0.025013   0.001670   0.001853  -1.983356   0.989316  -0.108472
    20  C    0.034566  -0.003635   0.002270  -1.438343   0.343652   0.084787
    21  H   -0.005118   0.000441   0.001858  -0.036375   0.003818  -0.000006
    22  H    0.042661   0.010016   0.001528  -0.002366   0.000105  -0.000002
    23  H    0.040756  -0.004369  -0.002798  -0.003200  -0.000179   0.000000
    24  H    0.010404   0.001668   0.001533   0.009359  -0.000115   0.000002
    25  H    0.000139  -0.000384  -0.000287   0.000133   0.000012   0.000000
    26  H    0.024210  -0.020427  -0.000427  -0.000462  -0.000028   0.000000
    27  H   -0.000037   0.000028   0.000000   0.000000   0.000000   0.000000
    28  H    0.376020  -0.043707  -0.037160   0.013658  -0.000098   0.000008
    29  H   -0.054617   0.430009   0.005581   0.019718   0.000308   0.000033
    30  H   -0.128539   0.429343  -0.000735  -0.012091  -0.000088  -0.000001
    31  H   -0.044181   0.365454   0.010350  -0.000062   0.000008  -0.000001
    32  H   -0.000731   0.000603   0.004486   0.201781  -0.012333  -0.003012
    33  H   -0.000031  -0.000005   0.000006   0.129559   0.086947  -0.007948
    34  H   -0.000036   0.000004   0.000012   0.007042  -0.003624   0.000880
             19         20         21         22         23         24
     1  O    0.053092  -0.666426   0.193443   0.000028  -0.000052  -0.000542
     2  C    0.382086  -1.835350   0.065492   0.024450   0.006320  -0.002199
     3  C   -0.431079  -1.495741  -0.152498  -0.045484  -0.007552  -0.005161
     4  C    0.241478   0.040634   0.023253   0.099934  -0.008754   0.065023
     5  N   -0.008090  -0.001464   0.056026   0.002688  -0.016466   0.019991
     6  C   -0.066304  -0.073214   0.007333   0.155108   0.170355  -0.157970
     7  C   -0.000082  -0.029155  -0.007215   0.005125   0.240986   0.041446
     8  O    0.000402   0.000995  -0.000536   0.007613  -0.053949   0.247987
     9  C   -0.000166  -0.005561  -0.000588  -0.028967  -0.039038   0.017247
    10  C    0.000049  -0.000821  -0.000101   0.004316  -0.054770   0.002417
    11  O    0.000000   0.000001   0.000000   0.000043   0.000576   0.000076
    12  O    0.000001   0.000003   0.000001   0.000038  -0.003324   0.000481
    13  C    0.025013   0.034566  -0.005118   0.042661   0.040756   0.010404
    14  C    0.001670  -0.003635   0.000441   0.010016  -0.004369   0.001668
    15  O    0.001853   0.002270   0.001858   0.001528  -0.002798   0.001533
    16  C   -1.983356  -1.438343  -0.036375  -0.002366  -0.003200   0.009359
    17  C    0.989316   0.343652   0.003818   0.000105  -0.000179  -0.000115
    18  Cl  -0.108472   0.084787  -0.000006  -0.000002   0.000000   0.000002
    19  C    7.165163  -0.068842  -0.005197   0.000352   0.000024   0.000413
    20  C   -0.068842  10.378229   0.112348   0.002323   0.000819  -0.001517
    21  H   -0.005197   0.112348   0.295801  -0.000062   0.000035   0.000246
    22  H    0.000352   0.002323  -0.000062   0.524900  -0.005237   0.000048
    23  H    0.000024   0.000819   0.000035  -0.005237   0.572786  -0.005517
    24  H    0.000413  -0.001517   0.000246   0.000048  -0.005517   0.330716
    25  H   -0.000001   0.000000   0.000000   0.001212   0.000617  -0.000151
    26  H    0.000001   0.000009   0.000000   0.000096   0.003259  -0.000062
    27  H    0.000000   0.000000   0.000000   0.000000  -0.000013   0.000000
    28  H    0.000024  -0.000088  -0.000001  -0.007076  -0.000156   0.000019
    29  H    0.000015   0.001278   0.000003  -0.000060  -0.000090  -0.000263
    30  H   -0.000113   0.000067   0.000000  -0.000107   0.000003  -0.000003
    31  H    0.000012  -0.000169   0.000000  -0.000027  -0.000027   0.000151
    32  H    0.038102  -0.009822  -0.000006   0.000000   0.000000   0.000000
    33  H    0.186250  -0.008178   0.000002   0.000000   0.000000   0.000000
    34  H   -0.006322   0.298161   0.000070   0.000000   0.000000   0.000000
             25         26         27         28         29         30
     1  O    0.000000   0.000000   0.000000   0.000008   0.000019  -0.000002
     2  C   -0.000152   0.000374   0.000000  -0.005354  -0.004020   0.000868
     3  C   -0.000165   0.000161   0.000000   0.005803   0.002699   0.004651
     4  C   -0.003305  -0.001642  -0.000046   0.024149   0.003635  -0.004504
     5  N    0.002209  -0.002305   0.000004   0.006932   0.013532  -0.004334
     6  C   -0.017767   0.007853  -0.001606  -0.054385  -0.028711   0.102255
     7  C   -0.033802   0.014936   0.003469  -0.012403  -0.044562  -0.027546
     8  O    0.005386  -0.003838  -0.000033  -0.000867  -0.006205   0.000685
     9  C    0.373080   0.314200   0.018023   0.021753   0.017009   0.005455
    10  C    0.002050  -0.003317  -0.003207   0.003531   0.000441  -0.000823
    11  O    0.001174   0.002538   0.240936   0.000018   0.000005  -0.000001
    12  O   -0.000236   0.003450   0.003197   0.000018   0.000015   0.000000
    13  C    0.000139   0.024210  -0.000037   0.376020  -0.054617  -0.128539
    14  C   -0.000384  -0.020427   0.000028  -0.043707   0.430009   0.429343
    15  O   -0.000287  -0.000427   0.000000  -0.037160   0.005581  -0.000735
    16  C    0.000133  -0.000462   0.000000   0.013658   0.019718  -0.012091
    17  C    0.000012  -0.000028   0.000000  -0.000098   0.000308  -0.000088
    18  Cl   0.000000   0.000000   0.000000   0.000008   0.000033  -0.000001
    19  C   -0.000001   0.000001   0.000000   0.000024   0.000015  -0.000113
    20  C    0.000000   0.000009   0.000000  -0.000088   0.001278   0.000067
    21  H    0.000000   0.000000   0.000000  -0.000001   0.000003   0.000000
    22  H    0.001212   0.000096   0.000000  -0.007076  -0.000060  -0.000107
    23  H    0.000617   0.003259  -0.000013  -0.000156  -0.000090   0.000003
    24  H   -0.000151  -0.000062   0.000000   0.000019  -0.000263  -0.000003
    25  H    0.464162  -0.021098  -0.000201   0.000009   0.000010  -0.000004
    26  H   -0.021098   0.472934  -0.000079  -0.000259  -0.000084   0.000022
    27  H   -0.000201  -0.000079   0.301754   0.000000   0.000000   0.000000
    28  H    0.000009  -0.000259   0.000000   0.515702   0.003859  -0.003569
    29  H    0.000010  -0.000084   0.000000   0.003859   0.504815  -0.028412
    30  H   -0.000004   0.000022   0.000000  -0.003569  -0.028412   0.516904
    31  H   -0.000204   0.000509   0.000000  -0.000986  -0.023283  -0.024950
    32  H    0.000000   0.000000   0.000000   0.000002   0.000005  -0.000011
    33  H    0.000000   0.000000   0.000000   0.000000   0.000000   0.000000
    34  H    0.000000   0.000000   0.000000   0.000000   0.000000   0.000000
             31         32         33         34
     1  O   -0.000001  -0.000479  -0.000414  -0.003539
     2  C   -0.000826   0.034297  -0.053214   0.024509
     3  C    0.000178   0.007919   0.006489   0.013604
     4  C   -0.001125   0.056181  -0.009666  -0.002617
     5  N   -0.011938   0.000026   0.000051   0.000430
     6  C   -0.019197   0.006652  -0.000073   0.000185
     7  C    0.092356  -0.000106  -0.000003  -0.000020
     8  O   -0.004461   0.000003   0.000000   0.000000
     9  C   -0.040722   0.000004   0.000000   0.000001
    10  C    0.008159   0.000003   0.000000   0.000000
    11  O    0.000012   0.000000   0.000000   0.000000
    12  O   -0.000037   0.000000   0.000000   0.000000
    13  C   -0.044181  -0.000731  -0.000031  -0.000036
    14  C    0.365454   0.000603  -0.000005   0.000004
    15  O    0.010350   0.004486   0.000006   0.000012
    16  C   -0.000062   0.201781   0.129559   0.007042
    17  C    0.000008  -0.012333   0.086947  -0.003624
    18  Cl  -0.000001  -0.003012  -0.007948   0.000880
    19  C    0.000012   0.038102   0.186250  -0.006322
    20  C   -0.000169  -0.009822  -0.008178   0.298161
    21  H    0.000000  -0.000006   0.000002   0.000070
    22  H   -0.000027   0.000000   0.000000   0.000000
    23  H   -0.000027   0.000000   0.000000   0.000000
    24  H    0.000151   0.000000   0.000000   0.000000
    25  H   -0.000204   0.000000   0.000000   0.000000
    26  H    0.000509   0.000000   0.000000   0.000000
    27  H    0.000000   0.000000   0.000000   0.000000
    28  H   -0.000986   0.000002   0.000000   0.000000
    29  H   -0.023283   0.000005   0.000000   0.000000
    30  H   -0.024950  -0.000011   0.000000   0.000000
    31  H    0.531537   0.000000   0.000000   0.000000
    32  H    0.000000   0.461408  -0.000129   0.000008
    33  H    0.000000  -0.000129   0.466763  -0.003645
    34  H    0.000000   0.000008  -0.003645   0.469586
 Mulliken atomic charges:
              1
     1  O   -0.549343
     2  C   -0.297724
     3  C    0.100922
     4  C    0.491996
     5  N   -0.474111
     6  C   -0.076615
     7  C    0.072495
     8  O   -0.554972
     9  C   -0.377476
    10  C    0.574252
    11  O   -0.509398
    12  O   -0.491026
    13  C   -0.112934
    14  C   -0.395036
    15  O   -0.336017
    16  C   -0.548185
    17  C   -0.154305
    18  Cl   0.235507
    19  C   -0.407289
    20  C    0.338182
    21  H    0.447533
    22  H    0.206801
    23  H    0.168953
    24  H    0.424276
    25  H    0.227562
    26  H    0.209476
    27  H    0.437811
    28  H    0.194594
    29  H    0.187319
    30  H    0.175579
    31  H    0.163473
    32  H    0.215150
    33  H    0.207239
    34  H    0.205311
 Sum of Mulliken atomic charges =   0.00000
 Mulliken charges with hydrogens summed into heavy atoms:
              1
     1  O   -0.101809
     2  C   -0.297724
     3  C    0.100922
     4  C    0.491996
     5  N   -0.474111
     6  C    0.130186
     7  C    0.241447
     8  O   -0.130696
     9  C    0.059563
    10  C    0.574252
    11  O   -0.071586
    12  O   -0.491026
    13  C    0.081660
    14  C    0.131334
    15  O   -0.336017
    16  C   -0.333036
    17  C   -0.154305
    18  Cl   0.235507
    19  C   -0.200050
    20  C    0.543492
 Sum of Mulliken charges with hydrogens summed into heavy atoms =   0.00000
 Electronic spatial extent (au):  <R**2>=           9162.4869
 Charge=              0.0000 electrons
 Dipole moment (field-independent basis, Debye):
    X=              1.5681    Y=             -3.1892    Z=             -1.8479  Tot=              4.0056
 Quadrupole moment (field-independent basis, Debye-Ang):
   XX=           -115.6009   YY=           -129.5536   ZZ=           -126.7204
   XY=            -20.4477   XZ=             -8.0508   YZ=              1.7993
 Traceless Quadrupole moment (field-independent basis, Debye-Ang):
   XX=              8.3574   YY=             -5.5953   ZZ=             -2.7621
   XY=            -20.4477   XZ=             -8.0508   YZ=              1.7993
 Octapole moment (field-independent basis, Debye-Ang**2):
  XXX=            178.1073  YYY=            -28.0251  ZZZ=             -7.5038  XYY=            -20.0131
  XXY=             -3.9095  XXZ=             -5.3694  XZZ=             19.9446  YZZ=             -4.5441
  YYZ=              4.1960  XYZ=              0.1280
 Hexadecapole moment (field-independent basis, Debye-Ang**3):
 XXXX=          -8499.3074 YYYY=          -1508.5681 ZZZZ=           -334.8945 XXXY=           -451.5727
 XXXZ=            -23.9312 YYYX=            -33.7704 YYYZ=             12.6411 ZZZX=            -22.5350
 ZZZY=              8.1240 XXYY=          -2045.3365 XXZZ=          -1793.9158 YYZZ=           -307.5944
 XXYZ=             42.3267 YYXZ=             -5.8085 ZZXY=              6.9969
 N-N= 1.646981625570D+03 E-N=-6.566118357236D+03  KE= 1.385269219683D+03
 D1PCM: PCM CHGder 1st derivatives, ID1Alg=3 FixD1E=F DoIter=F DoCFld=F I1PDM=0.
 Calling FoFJK, ICntrl=      2127 FMM=F ISym2X=0 I1Cent= 0 IOpClX= 0 NMat=1 NMatS=1 NMatT=0.
 ***** Axes restored to original set *****
 -------------------------------------------------------------------
 Center     Atomic                   Forces (Hartrees/Bohr)
 Number     Number              X              Y              Z
 -------------------------------------------------------------------
      1        8          -0.030942188    0.008429848    0.005186591
      2        6           0.009776358   -0.004700663   -0.001387313
      3        6          -0.002441602    0.018903361    0.001703063
      4        6           0.000862393    0.003332193   -0.004111487
      5        7          -0.005731310   -0.024120170   -0.000748129
      6        6           0.029007225    0.001578045   -0.002660236
      7        6          -0.004737693   -0.000955643    0.003481347
      8        8           0.029040013    0.010944333   -0.012778492
      9        6          -0.009265866   -0.009231445   -0.005291764
     10        6          -0.003174504   -0.014056807    0.003254906
     11        8          -0.041974089    0.015382726    0.014687536
     12        8           0.006229591    0.030502160   -0.007159353
     13        6           0.008773961   -0.004400987   -0.025880396
     14        6           0.001009025   -0.003663836    0.003229745
     15        8          -0.042765340    0.010483262    0.020135673
     16        6          -0.015886018   -0.010670525    0.002259891
     17        6           0.018826324   -0.019556429   -0.003633311
     18       17          -0.004532259    0.007273444    0.000923112
     19        6           0.017865780   -0.003003455   -0.003070311
     20        6           0.003971124    0.020142608    0.000078348
     21        1           0.023704861    0.005693500   -0.004210293
     22        1           0.002551903   -0.002603896    0.004943399
     23        1           0.005411989   -0.002579946    0.006915540
     24        1          -0.022033330   -0.006969333    0.001149082
     25        1           0.002112113    0.001540767    0.004893947
     26        1           0.000222223    0.001719192   -0.003019826
     27        1           0.024365761   -0.025993700   -0.007348248
     28        1          -0.002899424    0.001554289    0.003549546
     29        1          -0.000787013   -0.003368339    0.000595482
     30        1          -0.000807205    0.002131859    0.004599110
     31        1           0.003822229   -0.001797206   -0.000183547
     32        1           0.004121832    0.002619889   -0.000567873
     33        1          -0.004227050   -0.000537784    0.000669349
     34        1           0.000530185   -0.004021311   -0.000205089
 -------------------------------------------------------------------
 Cartesian Forces:  Max     0.042765340 RMS     0.012412225

 GradGradGradGradGradGradGradGradGradGradGradGradGradGradGradGradGradGrad
 Berny optimization.
 Internal  Forces:  Max     0.036365503 RMS     0.007881700
 Search for a local minimum.
 Step number   1 out of a maximum of  191
 All quantities printed in internal units (Hartrees-Bohrs-Radians)
 Mixed Optimization -- RFO/linear search
 Second derivative matrix not updated -- first step.
 ITU=  0
     Eigenvalues ---    0.00230   0.00230   0.00230   0.00334   0.00705
     Eigenvalues ---    0.00809   0.00907   0.01481   0.01557   0.01690
     Eigenvalues ---    0.01844   0.01923   0.01955   0.01968   0.01980
     Eigenvalues ---    0.01995   0.01997   0.02000   0.02141   0.02236
     Eigenvalues ---    0.02383   0.03528   0.03626   0.03679   0.03737
     Eigenvalues ---    0.04259   0.04623   0.05171   0.05243   0.05451
     Eigenvalues ---    0.05668   0.07672   0.08315   0.08507   0.09729
     Eigenvalues ---    0.13058   0.13664   0.16000   0.16000   0.16000
     Eigenvalues ---    0.16000   0.16000   0.16000   0.16000   0.16000
     Eigenvalues ---    0.16000   0.16892   0.17622   0.19446   0.20362
     Eigenvalues ---    0.21980   0.22371   0.23490   0.23675   0.24601
     Eigenvalues ---    0.24984   0.24998   0.25000   0.25000   0.25000
     Eigenvalues ---    0.25000   0.27000   0.27762   0.27830   0.28460
     Eigenvalues ---    0.29183   0.33057   0.33522   0.34451   0.34595
     Eigenvalues ---    0.34730   0.34805   0.34812   0.34820   0.35000
     Eigenvalues ---    0.35118   0.35938   0.35948   0.35979   0.37494
     Eigenvalues ---    0.39778   0.40406   0.41698   0.43043   0.43078
     Eigenvalues ---    0.43970   0.44301   0.44501   0.48418   0.51743
     Eigenvalues ---    0.53178   0.56591   0.57597   0.58886   0.71137
     Eigenvalues ---    0.92144
 RFO step:  Lambda=-3.01530049D-02 EMin= 2.30000000D-03
 Linear search not attempted -- first point.
 Iteration  1 RMS(Cart)=  0.07307363 RMS(Int)=  0.00172246
 Iteration  2 RMS(Cart)=  0.00246306 RMS(Int)=  0.00044483
 Iteration  3 RMS(Cart)=  0.00000405 RMS(Int)=  0.00044482
 Iteration  4 RMS(Cart)=  0.00000000 RMS(Int)=  0.00044482
 Variable       Old X    -DE/DX   Delta X   Delta X   Delta X     New X
                                 (Linear)    (Quad)   (Total)
    R1        2.58146  -0.01586   0.00000  -0.02896  -0.02896   2.55250
    R2        1.80445   0.02471   0.00000   0.04146   0.04146   1.84590
    R3        2.69096  -0.01916   0.00000  -0.04289  -0.04288   2.64808
    R4        2.66271  -0.01452   0.00000  -0.03100  -0.03101   2.63170
    R5        2.81444  -0.02312   0.00000  -0.06327  -0.06327   2.75117
    R6        2.66999  -0.01303   0.00000  -0.02794  -0.02791   2.64208
    R7        2.39904   0.01590   0.00000   0.02184   0.02220   2.42125
    R8        2.58315  -0.01398   0.00000  -0.02584  -0.02557   2.55757
    R9        2.72452   0.00857   0.00000   0.02304   0.02305   2.74758
   R10        2.92661  -0.00707   0.00000  -0.02299  -0.02299   2.90363
   R11        2.92125   0.00666   0.00000   0.01898   0.01854   2.93979
   R12        2.06576   0.00586   0.00000   0.01564   0.01564   2.08140
   R13        2.67573   0.00615   0.00000   0.01334   0.01334   2.68907
[...]
 01401,-0.00001148,-0.00000827,-0.00005363,-0.00004649,0.00000763,0.000
 00392,0.00008239,-0.00019284,0.00003427,-0.00001323,-0.00003388,-0.000
 02269,-0.00088799,-0.00008597,-0.00003418,0.00001373,-0.00000369,-0.00
 003260,0.00005865,0.00002303,0.00000398,-0.00000502,-0.00000136,-0.000
 37274,0.00008567,0.00281711,0.10814061,0.13795183,0.00001465,-0.000059
 11,-0.00000155,-0.00006350,0.00007291,-0.00000225,0.00002455,0.0000558
 4,-0.00002861,0.00085574,0.00026056,-0.00091193,0.00013776,0.00047327,
 0.00031693,-0.00039486,-0.00034380,0.00112016,-0.00018352,0.00037115,-
 0.00070494,0.00103182,-0.00083851,0.00019733,0.00010811,-0.00009476,-0
 .00003303,-0.00006401,0.00002049,0.00008423,0.00003344,-0.00000524,-0.
 00002285,0.00002932,-0.00003804,-0.00002202,-0.02233914,-0.01929111,-0
 .01950160,-0.09608579,-0.08005532,-0.12618417,-0.00031341,-0.00016918,
 0.00350140,0.00004240,-0.00004269,-0.00001477,-0.00003776,-0.00007129,
 0.00000413,-0.00001997,0.00002577,0.00000407,-0.00003317,0.00005718,0.
 00000504,0.00003777,-0.00001123,-0.00000567,0.00004981,0.00005715,-0.0
 0000202,0.00007648,-0.00003046,0.00017764,-0.00003359,0.00004909,0.000
 10737,-0.00005317,0.00037867,0.00018146,0.00002476,-0.00000875,0.00001
 212,-0.00008664,0.00005544,-0.00002672,-0.00000526,0.00000322,0.000002
 78,0.00078542,0.00286167,-0.00510446,0.10540697,0.08692075,0.13859829,
 0.00001432,0.00005314,0.00000753,0.00002984,-0.00004689,-0.00000648,0.
 00005671,0.00004730,0.00003988,-0.00001900,-0.00068351,-0.00009101,0.0
 0008046,0.00028793,-0.00002307,0.00038961,-0.00051812,0.00001617,-0.00
 017350,-0.00048477,-0.00004332,0.00100792,-0.00008894,0.00015760,-0.00
 033169,-0.00024505,0.00021426,0.00028266,-0.00018220,-0.00033118,-0.00
 015160,0.00004477,0.00009994,-0.00008652,0.00023074,0.00011837,-0.0023
 2358,0.00131582,0.00139248,-0.07078488,0.07476533,-0.00134897,0.001003
 80,-0.00050636,-0.00044867,-0.00001087,0.00000280,0.00000780,-0.000002
 27,0.00003485,-0.00001016,0.00001123,-0.00001299,-0.00000288,0.0000149
 5,-0.00001564,0.00000145,-0.00000403,0.00001167,-0.00000348,-0.0000294
 8,-0.00004256,-0.00002195,-0.00000704,0.00013237,-0.00003638,0.0000502
 1,0.00002979,0.00004621,-0.00014622,0.00031896,-0.00004720,-0.00001409
 ,0.00009540,-0.00004941,0.00024952,0.00026092,-0.00012568,0.00001877,-
 0.00001566,-0.00001549,-0.00002664,0.00021879,-0.00000102,0.00680540,-
 0.02022827,0.00172476,0.07066085,-0.00005795,-0.00003873,0.00001052,-0
 .00001062,0.00000648,0.00000064,-0.00001868,0.00004926,0.00002735,0.00
 003118,-0.00084218,-0.00050955,-0.00025868,0.00051329,0.00030516,0.000
 76655,0.00205330,0.00163121,-0.00047488,0.00023663,-0.00042917,0.00058
 259,-0.00117430,-0.00005004,-0.00003568,0.00002571,-0.00002308,-0.0001
 7995,0.00011118,0.00011710,0.00012078,-0.00002381,-0.00008025,0.000091
 17,-0.00008010,-0.00003636,0.00278327,-0.01109878,0.00010196,0.0740357
 6,-0.30104580,-0.00086162,-0.00008589,0.00155789,-0.00071012,0.0000062
 1,-0.00003904,-0.00000779,-0.00002361,-0.00003013,-0.00000100,-0.00001
 137,0.00001624,0.00000207,-0.00001746,0.00002571,0.00000635,0.00001504
 ,-0.00000056,-0.00000720,0.00007382,0.00008819,-0.00000930,-0.00004842
 ,-0.00071083,0.00011090,0.00005875,-0.00004397,0.00003942,0.00013934,0
 .00029022,0.00007940,0.00000981,-0.00001066,0.00000668,-0.00002742,-0.
 00003660,0.00001436,-0.00001233,0.00001301,0.00000623,-0.00025717,0.00
 081930,0.00024409,0.00552226,-0.01402136,0.00103016,-0.08226520,0.3235
 2687,0.00017248,0.00006321,-0.00001976,-0.00000530,0.00004813,-0.00001
 270,-0.00000719,-0.00011090,0.00000775,-0.00006795,0.00110834,0.000407
 52,0.00064727,0.00038265,-0.00008243,0.00014401,-0.00119468,-0.0056882
 2,0.00000392,-0.00029440,-0.00119424,0.00053303,-0.00168501,0.00063717
 ,0.00017968,0.00017498,0.00002954,-0.00007494,-0.00002267,0.00006431,-
 0.00001040,0.00000634,0.00000599,0.00000243,-0.00003109,-0.00000674,-0
 .00944032,0.03533612,-0.00299232,0.00034988,-0.00291712,-0.04629216,-0
 .00164667,-0.00191717,0.00204721,-0.00000234,0.00002844,-0.00001541,0.
 00002221,0.00002796,0.00000236,0.00001126,-0.00001554,-0.00000174,0.00
 001783,-0.00002849,-0.00000353,-0.00001419,-0.00000627,0.00000386,-0.0
 0018748,-0.00017655,0.00002618,-0.00005466,0.00151760,-0.00034894,-0.0
 0002136,0.00004910,0.00024854,0.00007546,0.00014407,0.00002546,0.00006
 653,-0.00003887,0.00002524,-0.00011895,-0.00010706,-0.00000844,-0.0000
 0611,-0.00000071,0.00000515,-0.00013836,-0.00049691,0.00140675,0.00673
 670,-0.01529770,0.00012420,0.00057450,-0.00068385,0.05186936,-0.000021
 69,-0.00004260,-0.00000049,-0.00001247,0.00004306,0.00000673,-0.000010
 15,0.00002003,0.00004640,0.00073430,0.00076742,-0.00029414,-0.00007487
 ,-0.00017247,-0.00003036,0.00003141,-0.00002793,0.00041263,0.00017448,
 -0.00049771,0.00079713,0.00019990,0.00140629,-0.00021857,-0.00106216,0
 .00067056,-0.00015306,0.00017405,-0.00003714,-0.00029084,-0.00006031,-
 0.00000931,0.00006387,-0.00005242,0.00015548,0.00009226,0.00128960,-0.
 00055584,-0.00176718,-0.27350102,0.01738447,0.10856095,0.00144673,-0.0
 0021752,-0.00019153,0.00002887,-0.00001139,-0.00001653,-0.00001614,-0.
 00003876,0.00000636,-0.00001094,0.00001346,0.00000252,-0.00001227,0.00
 002575,0.00000172,0.00001138,-0.00000641,-0.00000425,0.00004676,0.0000
 4722,-0.00000228,0.00004829,-0.00016107,-0.00000218,-0.00003804,-0.000
 00398,-0.00013396,-0.00019514,0.00012598,-0.00004389,-0.00007211,0.000
 00807,-0.00005588,-0.00139587,0.00188286,-0.00090233,0.00001244,-0.000
 00960,-0.00000670,-0.00000547,-0.00034184,0.00060160,-0.01698822,0.002
 50383,0.00932934,-0.00655132,-0.00044015,0.00225181,0.29587745,0.00003
 475,-0.00004297,-0.00000700,-0.00005464,0.00008939,-0.00000584,-0.0000
 7091,-0.00011585,-0.00011460,0.00030261,0.00129074,0.00004822,0.000230
 64,0.00000151,-0.00003967,-0.00030332,0.00017163,-0.00037355,0.0000720
 3,-0.00055892,0.00084754,0.00010340,0.00020670,-0.00038345,0.00028303,
 -0.00063927,0.00016987,0.00045894,-0.00035320,-0.00037488,-0.00026518,
 0.00008149,0.00015802,-0.00016334,0.00028883,0.00013270,-0.01012084,-0
 .00130864,0.00191193,0.01944679,-0.04590332,-0.00779855,-0.00151001,-0
 .00028783,0.00359884,0.00002293,-0.00002734,-0.00001815,-0.00000201,-0
 .00003210,0.00000749,-0.00001189,0.00001382,0.00000141,-0.00001491,0.0
 0001377,-0.00000251,0.00000354,-0.00001704,0.00000848,-0.00001151,0.00
 000184,0.00000984,0.00013550,0.00004438,-0.00004669,0.00007243,0.00008
 520,-0.00010644,-0.00016262,0.00004079,-0.00013257,-0.00005735,0.00016
 437,-0.00006719,0.00170673,-0.00054050,0.00056482,0.00003145,-0.000025
 31,-0.00002100,0.00009990,0.00024097,-0.00018938,-0.01525583,0.0003848
 7,0.00837958,0.02746355,-0.00013747,-0.01385778,-0.02246892,0.04688575
 ,0.00002090,0.00016115,-0.00000493,0.00011795,-0.00024740,0.00003456,0
 .00035781,0.00038639,0.00012794,-0.00066926,-0.00391842,-0.00113058,-0
 .00076763,0.00094830,0.00070078,0.00027122,-0.00004508,0.00042093,0.00
 027217,0.00064427,-0.00012770,-0.00041834,-0.00008198,-0.00019241,0.00
 035276,0.00028651,-0.00030967,-0.00048408,0.00024160,0.00055421,0.0002
 2101,-0.00006052,-0.00016131,0.00014887,-0.00039375,-0.00020009,0.0266
 6784,-0.00462503,-0.00587012,0.10753461,-0.00669791,-0.09978622,0.0045
 9794,0.00470848,-0.00770951,-0.00007675,0.00008823,0.00000061,0.000023
 80,0.00010776,-0.00000565,0.00003704,-0.00004548,-0.00000750,0.0000415
 4,-0.00004528,-0.00000451,0.00000101,0.00004447,-0.00002141,-0.0001077
 9,-0.00011134,0.00002752,-0.00023125,-0.00013745,-0.00002898,-0.000146
 12,-0.00003886,-0.00000429,0.00009357,-0.00006146,-0.00003035,0.000037
 79,-0.00008787,0.00003747,-0.00114624,0.00038736,0.00035054,-0.0000261
 2,0.00002487,0.00002798,-0.00085256,-0.00059393,0.00081138,-0.01599220
 ,0.00177325,0.00813559,-0.00180633,-0.00034050,-0.00026701,-0.11804734
 ,0.00769131,0.10464047,0.00017186,0.00141573,0.00002757,-0.00212414,0.
 00261342,0.00146436,0.01218516,0.01587610,-0.00078756,0.00052386,0.000
 73627,-0.00068116,0.00018442,-0.00056607,-0.00010759,0.00003359,0.0000
 5126,-0.00001450,-0.00002822,-0.00001280,0.00007150,0.00000136,-0.0000
 3192,-0.00004170,-0.00000197,-0.00001162,-0.00001470,-0.00002842,0.000
 02818,0.00002537,0.00002220,-0.00000662,-0.00001514,0.00001549,-0.0000
 2163,-0.00001116,-0.00052131,-0.00014109,0.00028920,0.00012643,-0.0000
 1564,-0.00002616,-0.00183124,0.00016006,0.00008467,-0.10870725,-0.1120
 8047,0.00787344,-0.00782203,-0.02608141,0.00105840,0.00107321,-0.00104
 061,-0.00064732,-0.00525828,0.00031279,0.00182892,-0.00061400,0.000987
 89,-0.00005122,0.00050496,0.00004151,-0.00008413,0.00001839,-0.0000063
 4,0.00000986,0.00001400,-0.00001280,-0.00001747,0.00001175,0.00002306,
 0.00002040,-0.00000380,-0.00000051,0.00000003,-0.00000923,0.00000044,0
 .00000446,-0.00000197,0.00000280,0.00000128,0.00006767,-0.00000822,-0.
 00003234,-0.00000415,0.00000686,0.00000376,-0.00001719,-0.00000993,0.0
 0000800,0.00000670,0.00001063,-0.00004148,0.11215330,-0.00036246,-0.00
 113229,0.00000665,0.00382989,-0.00070474,-0.00083751,-0.01041690,-0.01
 679188,0.00099958,-0.00109573,-0.00179079,0.00025183,-0.00015251,0.000
 46623,0.00010979,-0.00014940,0.00012272,0.00010763,0.00002257,0.000000
 42,-0.00013735,-0.00000004,0.00003861,0.00006034,0.00000105,0.00002579
 ,0.00002010,0.00003862,-0.00003444,-0.00003517,-0.00003422,0.00000798,
 0.00002249,-0.00002258,0.00002387,0.00001437,0.00067004,0.00045318,-0.
 00039362,-0.00008716,0.00001668,0.00001273,-0.00144812,0.00108463,0.00
 048549,-0.11265801,-0.29551520,0.00997125,0.00185516,0.00208949,-0.000
 36504,0.00063651,0.00080472,0.00004654,0.00046566,0.00101992,-0.000244
 95,0.00035380,0.00040264,-0.00000294,-0.00047164,-0.00004612,0.0000773
 4,-0.00003614,-0.00000076,-0.00000301,-0.00002228,0.00001999,0.0000264
 3,-0.00001147,-0.00003439,-0.00002956,0.00000465,0.00000095,0.00000006
 ,0.00000825,-0.00000044,-0.00000389,0.00000304,-0.00000374,-0.00000122
 ,-0.00006150,-0.00000091,0.00002212,0.00001197,-0.00000952,-0.00001396
 ,0.00002096,-0.00000058,-0.00000197,-0.00001236,-0.00001629,0.00003854
 ,0.11913091,0.30925656,-0.00003771,-0.00021072,0.00008593,0.00145367,-
 0.00069987,0.00592307,-0.00164248,-0.00324056,0.00418943,-0.00075174,-
 0.00008483,-0.00386841,-0.00000802,0.00010216,-0.00002496,0.00005326,0
 .00004890,0.00046657,-0.00003658,-0.00001830,-0.00002731,0.00000328,0.
 00000745,-0.00000603,-0.00000410,0.00002095,0.00000792,0.00000356,-0.0
 0001109,-0.00000879,-0.00000827,0.00000294,0.00000588,-0.00000422,0.00
 000519,0.00000189,0.00007331,-0.00010098,-0.00022473,0.00000996,0.0000
 0847,-0.00000607,0.00011167,0.00013518,0.00012210,0.00776221,0.0098726
 3,-0.03868413,0.00204299,0.00413434,0.00414881,-0.00060583,0.00033540,
 -0.00285013,0.00182539,-0.00020504,0.00558501,-0.00005387,-0.00011058,
 -0.00098749,-0.00006933,0.00000099,-0.00000504,0.00008631,-0.00001579,
 -0.00001842,-0.00000761,0.00000729,0.00000506,0.00000150,-0.00000715,-
 0.00000142,-0.00000090,-0.00000017,-0.00000134,0.00000191,0.00000005,-
 0.00000049,0.00000111,-0.00000121,0.00000064,-0.00003303,0.00000886,0.
 00001628,-0.00000250,-0.00001389,-0.00000687,0.00001052,0.00001503,-0.
 00000246,-0.00001084,0.00000743,-0.00000305,-0.01010630,-0.01023531,0.
 02662328,-0.00100443,-0.00002225,0.00014265,0.00105460,0.00198279,0.00
 123437,0.00083882,0.00026792,-0.00026624,-0.00026527,-0.00003491,-0.00
 006262,0.00000202,-0.00007565,-0.00005368,0.00000060,-0.00002810,0.000
 04476,-0.00000352,0.00001341,0.00000152,0.00000202,-0.00000422,-0.0000
 0542,0.00000025,-0.00000428,-0.00000223,-0.00000248,0.00000370,0.00000
 292,0.00000289,-0.00000079,-0.00000192,0.00000137,-0.00000185,-0.00000
 086,0.00000887,-0.00001485,-0.00001714,0.00000013,-0.00000022,0.000000
 04,-0.00002333,0.00001090,0.00002615,0.00079462,-0.00215238,0.00066293
 ,-0.00797374,0.00205222,0.00196586,0.00095197,0.00061729,-0.00055239,-
 0.33774567,-0.02572474,0.04719461,-0.01025269,-0.00291125,0.00235772,0
 .00018633,0.00024713,-0.00005848,0.00001806,0.00000844,-0.00000504,-0.
 00000030,0.00000055,0.00000066,0.00000027,0.00000488,0.00000534,-0.000
 00060,-0.00000017,0.,0.00000011,0.00000008,-0.00000017,-0.00000031,0.0
 0000040,0.00000016,-0.00000138,0.00000020,0.00000125,0.00000028,-0.000
 00074,0.00000121,0.00000024,0.00000079,-0.00000060,0.00000010,0.000000
 31,0.00000015,-0.00022677,0.00008020,0.00003300,0.35299843,0.00169206,
 0.00039964,-0.00026013,0.00201940,-0.00394652,-0.00071779,0.00075201,-
 0.00103827,-0.00011921,-0.00021364,-0.00009484,0.00004644,0.00011247,0
 .00002905,-0.00003308,-0.00004846,0.00001444,0.00001969,-0.00000483,0.
 00001418,0.00000460,0.00000312,-0.00000508,-0.00000784,0.00000108,-0.0
 0000496,-0.00000421,-0.00000386,0.00000571,0.00000400,0.00000422,-0.00
 000142,-0.00000274,0.00000233,-0.00000316,-0.00000132,0.00003555,0.000
 03226,-0.00001130,-0.00000128,0.00000226,0.00000094,-0.00002265,0.0001
 2037,0.00002160,-0.00215964,-0.00512914,-0.00000285,-0.02672656,0.0010
 1862,0.00422827,-0.00086118,0.00128142,0.00023763,-0.02393675,-0.05937
 071,0.00317243,0.02541943,0.00682378,-0.00403232,-0.00007200,-0.000384
 56,0.00000434,0.00001275,0.00000677,-0.00000219,-0.00000158,0.00000116
 ,0.00000111,-0.00000009,0.00000554,0.00000787,-0.00000086,-0.00000016,
 0.00000004,0.00000039,0.00000014,-0.00000014,-0.00000035,0.00000058,0.
 00000006,-0.00000090,0.00000542,-0.00000193,0.00000049,-0.00000152,0.0
 0000105,0.00000077,0.00000163,-0.00000218,0.00000007,-0.00000003,-0.00
 000044,-0.00126449,0.00027906,0.00021366,0.02581439,0.05897214,0.00016
 065,0.00006934,-0.00017302,0.00121133,-0.00076128,0.00811017,-0.000243
 63,-0.00002560,-0.00089046,-0.00010323,0.00002841,-0.00061031,-0.00000
 389,-0.00001134,-0.00014256,0.00002920,0.00001448,0.00010014,-0.000008
 00,0.00000596,0.00000001,0.00000057,-0.00000146,-0.00000571,0.00000164
 ,0.00000045,-0.00000065,-0.00000113,-0.00000023,0.00000049,-0.00000031
 ,-0.00000018,-0.00000075,-0.00000049,-0.00000028,-0.00000027,0.0000004
 5,-0.00003725,-0.00001269,-0.00000242,0.00000198,0.00000006,-0.0000141
 0,0.00001602,0.00006695,0.00069325,0.00001495,0.00530102,0.00102992,-0
 .00043763,0.00360754,-0.00060928,0.00000103,-0.00228315,0.04724161,0.0
 0351360,-0.04665417,0.00330079,0.00045594,0.00443435,-0.00002837,-0.00
 002312,-0.00022993,0.00001754,-0.00000299,0.00000027,-0.00000119,0.000
 00128,0.00000031,0.00000096,0.00000160,0.00000528,-0.00000041,-0.00000
 004,-0.00000012,0.00000011,0.00000005,0.00000025,0.00000034,0.00000007
 ,0.00000049,0.00000022,-0.00000248,0.00000058,0.00000026,-0.00000043,0
 .00000097,0.00000085,0.00000066,-0.00000023,-0.00000064,0.00000048,0.0
 0000106,-0.00001048,0.00000385,-0.00003996,-0.05176494,-0.00304532,0.0
 3404372,0.00321901,-0.00008329,-0.00105510,-0.00766502,-0.02850151,0.0
 0115285,-0.00510818,0.00045202,0.00159955,0.00048581,-0.00151206,-0.00
 015267,0.00006583,0.00021983,0.00001871,0.00001092,0.00006042,0.000009
 38,-0.00000200,-0.00002810,-0.00003503,-0.00000281,0.00001937,0.000022
 25,-0.00000406,0.00001420,0.00001259,0.00001174,-0.00001883,-0.0000127
 3,-0.00001175,0.00000464,0.00000818,-0.00000747,0.00001227,0.00000508,
 0.00008445,-0.00010111,-0.00011442,-0.00003906,0.00000820,0.00000627,-
 0.00074795,-0.00002801,0.00017974,-0.00122318,0.00114428,0.00008785,-0
 .00057092,0.00271144,0.00139628,-0.00014074,0.00128511,0.00009598,0.01
 155119,0.01779638,-0.00078118,-0.10732392,-0.10959685,0.00801270,-0.00
 028257,-0.00015301,-0.00006098,-0.00002645,-0.00000946,0.00000193,-0.0
 0000359,0.00000389,0.00000443,-0.00000470,-0.00001706,-0.00001415,0.00
 000255,0.00000048,0.00000023,0.00000280,-0.00000047,-0.00000128,0.0000
 0070,-0.00000150,-0.00000021,-0.00005331,0.00000525,0.00002964,0.00000
 378,-0.00000110,-0.00000432,0.00000343,-0.00000191,-0.00000018,-0.0000
 0187,-0.00000592,0.00001549,0.00008563,-0.00009077,-0.00009030,0.00063
 853,-0.00055139,-0.00089721,0.10705318,0.00026789,0.00043513,0.0000756
 0,0.00136296,0.00132510,-0.00035876,-0.00012796,0.00059575,-0.00012532
 ,0.00040912,0.00003667,-0.00005284,0.00002744,0.00013885,0.00001799,-0
 .00003507,0.00002402,-0.00000652,-0.00000163,-0.00000361,-0.00000081,0
 .00000138,0.00000041,0.00000168,-0.00000084,0.00000093,0.00000010,0.00
 000067,-0.00000006,-0.00000046,-0.00000044,-0.00000003,0.00000059,-0.0
 0000029,0.00000004,0.00000018,0.00001962,0.00002161,-0.00000289,-0.000
 00121,0.00000011,0.00000131,0.00000684,0.00000799,-0.00000268,0.000336
 81,0.00049592,-0.00000207,0.00308407,-0.00062607,-0.00078219,0.0000185
 5,-0.00110882,-0.00004309,-0.01105563,-0.01681201,0.00111920,-0.110910
 50,-0.29641573,0.00919792,-0.00014614,0.00004242,0.00004212,-0.0000084
 4,-0.00000438,0.00000232,0.00000009,0.00000046,0.00000013,-0.00000138,
 -0.00000050,-0.00000165,0.00000028,0.00000002,-0.00000003,0.00000005,-
 0.00000009,0.00000007,-0.00000009,0.00000010,-0.00000002,0.00000340,0.
 00000578,-0.00000296,0.00000016,0.00000033,-0.00000047,0.00000031,0.00
 000003,-0.00000002,0.00000042,0.00000005,0.00000020,-0.00008575,-0.000
 03138,0.00002858,-0.00012921,0.00096621,0.00021948,0.11696455,0.310904
 76,-0.00100253,0.00013692,-0.00305519,0.00203164,0.00451581,0.00485712
 ,0.00162487,-0.00022750,0.00474707,-0.00006010,0.00024808,0.00000480,-
 0.00000898,-0.00001751,0.00002008,0.00000241,-0.00000092,0.00001011,0.
 00000076,0.00000212,0.00001011,-0.00000868,-0.00000420,-0.00000906,0.0
 0000023,-0.00000097,-0.00000189,-0.00000193,0.00000327,0.00000306,0.00
 000164,-0.00000078,-0.00000201,0.00000070,-0.00000225,-0.00000232,-0.0
 0001454,0.00002048,-0.00001569,0.00001519,0.00000058,0.00000245,0.0001
 0968,0.00000201,-0.00012556,0.00008915,-0.00014759,-0.00094218,0.00136
 065,-0.00070879,0.00725370,0.00006119,-0.00025467,0.00020101,-0.001737
 21,-0.00351817,0.00314792,0.00799256,0.00892608,-0.03622753,-0.0000668
 6,0.00003934,-0.00058395,0.00000698,-0.00000037,-0.00000316,0.00000034
 ,-0.00000048,-0.00000150,0.00000622,0.00000329,0.00000360,-0.00000072,
 -0.00000033,-0.00000022,-0.00000028,0.00000025,0.00000047,0.00000024,0
 .00000026,0.00000066,0.00000316,0.00000038,-0.00000265,-0.00000203,-0.
 00000108,-0.00000026,0.00000034,0.00000053,-0.00000025,-0.00000031,0.0
 0000127,-0.00000575,-0.00008084,0.00002837,-0.00041478,-0.00088359,0.0
 0028126,-0.00462966,-0.00943935,-0.00932470,0.02576145\\-0.00001186,0.
 00000577,-0.00000041,0.00000692,-0.00001461,-0.00000273,-0.00000782,0.
 00000756,0.00000117,-0.00000262,-0.00002263,-0.00000866,-0.00000384,0.
 00001723,0.00000796,0.00002521,-0.00000399,0.00000549,0.00001515,-0.00
 000308,0.00000057,-0.00000021,0.00000186,-0.00000713,0.00000194,-0.000
 00336,0.00002185,-0.00000288,0.00000609,-0.00001524,-0.00000298,-0.000
 01337,0.00001423,0.00000935,0.00000891,0.00000569,-0.00006175,0.000009
 27,0.00001688,0.00000162,0.00000345,0.00000425,0.00002900,0.00000598,-
 0.00001736,-0.00000254,-0.00000469,-0.00000207,0.00000619,-0.00001779,
 -0.00000591,-0.00000582,0.00000254,-0.00000294,0.00000150,-0.00000175,
 -0.00000526,0.00000216,0.00000353,-0.00000519,-0.00000227,0.00000026,-
 0.00000461,-0.00000357,0.00000047,0.00000054,0.00000018,0.00000131,0.0
 0000318,0.00000411,-0.00000018,-0.00000126,-0.00000269,0.00000346,-0.0
 0000271,-0.00000028,0.00000157,0.00000177,0.00000218,0.00000825,0.0000
 0437,0.00000418,-0.00000584,0.00000323,0.00000189,0.00000229,0.0000031
 8,0.00000103,0.00000275,0.00000041,-0.00000060,0.00000608,0.00000084,-
 0.00000100,-0.00000136,-0.00000134,-0.00000059,-0.00000272,-0.00000650
 ,0.00000069,-0.00000325,-0.00000630\\\@


 O WAD SOME POWER THE GIFTIE GIE US       
 TO SEE OURSELS AS OTHERS SEE US.....     
 IT WOULD FRAE MONIE A BLUNDER FREE US,   
                     AND FOOLISH NOTION...
 WHAT AIRS IN DRESS AND GAIT WAD LEA'E US,
                     AND EV'N DEVOTION....
                                          
              (ROBERT BURNS 'TO A LOUSE') 
 Job cpu time:  0 days  7 hours 54 minutes  9.9 seconds.
 File lengths (MBytes):  RWF=    869 Int=      0 D2E=      0 Chk=     20 Scr=      1
 Normal termination of Gaussian 09 at Fri Mar 22 23:20:59 2019.
